<?xml version="1.0"?>
<VTKFile type="PolyData" version="0.1" byte_order="LittleEndian" compressor="vtkZLibDataCompressor">
	<PolyData>
		<Piece NumberOfPoints="997" NumberOfVerts="0" NumberOfLines="0" NumberOfStrips="0" NumberOfPolys="1451">
		<PointData Normals="Normals">
		<DataArray type="Float32" Name="Normals" NumberOfComponents="3" format="ascii">
			 0.808459  0.559258  0.183372
			 0.932534 -0.078623  0.352418
			 0.959525 -0.061905 -0.274736
			 0.378860  0.718966  0.582711
			 0.415736 -0.077606  0.906168
			 0.724810  0.688678 -0.019314
			 0.327781  0.928921  0.172238
			 0.728156 -0.678888  0.094339
			 0.295186 -0.823004  0.485314
			 0.742033  0.636597 -0.210073
			 0.783292  0.466075 -0.411374
			 0.825433 -0.009091 -0.564426
			 0.691965 -0.507397 -0.513550
			 0.655749 -0.693459 -0.298510
			 0.641227 -0.757386 -0.123265
			-0.587909  0.528960  0.612017
			-0.470229 -0.029870  0.882039
			-0.713042  0.660513  0.235146
			-0.416535 -0.651503  0.634068
			 0.381626  0.900598 -0.208049
			-0.441435  0.848948 -0.290555
			 0.280086 -0.959080  0.041439
			-0.382585 -0.902181  0.199242
			 0.505625  0.666687 -0.547605
			 0.565973  0.049438 -0.822940
			 0.376389 -0.615972 -0.692033
			 0.308391 -0.888051 -0.340971
			-0.693920  0.419690  0.585094
			-0.583140 -0.028417  0.811875
			-0.799338  0.542461  0.258448
			-0.545081 -0.567133  0.617452
			-0.565777  0.802579 -0.189113
			-0.554371 -0.801458  0.224363
			-0.011669  0.664610 -0.747099
			-0.137250  0.719384 -0.680918
			-0.368784 -0.856848 -0.360291
			-0.576449 -0.773148 -0.264476
			 0.041463  0.113551 -0.992667
			-0.219311 -0.474890 -0.852281
			-0.009692  0.651540  0.758553
			-0.042979 -0.090245  0.994992
			-0.011422  0.952929  0.302979
			-0.096090 -0.779582  0.618885
			-0.048583  0.961076 -0.271980
			-0.133345 -0.980195  0.146412
			-0.131267  0.519990 -0.844025
			-0.159593 -0.934121 -0.319295
			-0.146039  0.118004 -0.982216
			-0.184834 -0.035640 -0.982123
			-0.448328 -0.488593 -0.748518
			-0.192334 -0.529096 -0.826477
			 0.205606  0.725780  0.656483
			 0.256603 -0.060226  0.964639
			 0.150087  0.965770  0.211570
			 0.194008 -0.791665  0.579334
			 0.043651  0.885525 -0.462537
			 0.153072 -0.982917  0.102191
			-0.184933  0.098554 -0.977797
			 0.131528 -0.861219 -0.490920
			-0.172511 -0.013491 -0.984915
			 0.020523 -0.132149 -0.991017
			 0.230205  0.786414  0.573201
			 0.244921  0.027712  0.969147
			 0.185196  0.971119  0.150435
			 0.239257 -0.726536  0.644129
			 0.157064  0.876988 -0.454118
			 0.304658 -0.943516  0.130235
			 0.080612  0.194425 -0.977599
			 0.309811 -0.751832 -0.582036
			 0.088843  0.155414 -0.983846
			 0.185280  0.056671 -0.981050
			-0.102661  0.796173  0.596296
			-0.236415  0.121209  0.964062
			-0.056860  0.980711  0.187011
			-0.143778 -0.630521  0.762739
			 0.030795  0.927449 -0.372679
			 0.114651 -0.967653  0.224731
			 0.238602  0.435395 -0.868044
			 0.190455 -0.794400 -0.576763
			 0.256211  0.265247 -0.929516
			 0.160306 -0.024611 -0.986761
			-0.710076  0.487005  0.508545
			-0.861145  0.231532  0.452574
			-0.608097  0.748967  0.263184
			-0.897311 -0.045033  0.439095
			-0.560883  0.774889 -0.291473
			-0.695618 -0.645860  0.314612
			-0.169647  0.520446 -0.836873
			-0.557162 -0.646643 -0.520984
			-0.028875  0.415835 -0.908982
			-0.284266  0.102351 -0.953267
			-0.924206 -0.181490  0.336014
			-0.990553  0.137058 -0.004512
			-0.943966 -0.084270  0.319102
			-0.889389  0.455853  0.034432
			-0.957549  0.285951 -0.036497
			-0.960669  0.165924  0.222675
			-0.612499  0.587535 -0.528817
			-0.999779  0.004685 -0.020497
			-0.524541  0.496470 -0.691646
			-0.862444  0.279735 -0.421828
			-0.901503 -0.143583  0.408261
			-0.932134  0.129726  0.338079
			-0.936334 -0.137780  0.322949
			-0.875720  0.329307  0.353089
			-0.945135  0.265173  0.190795
			-0.928770  0.248062  0.275411
			-0.815868  0.577377 -0.031557
			-0.965689  0.177361  0.189702
			-0.895759  0.390313 -0.212771
			-0.979232  0.196518  0.049853
			-0.929070  0.232890  0.287388
			 0.676045 -0.082794  0.732194
			 0.594223 -0.266980  0.758697
			 0.842401 -0.503151  0.192873
			 0.093944  0.656444  0.748502
			-0.000730  0.038282  0.999267
			 0.893796  0.156711  0.420203
			 0.167571  0.944941  0.281082
			 0.589846 -0.531058  0.608325
			-0.054080 -0.578320  0.814015
			 0.970812  0.173180 -0.165927
			 0.887381 -0.094663 -0.451214
			 0.815994 -0.313192 -0.485865
			 0.759147 -0.532873 -0.373822
			 0.683376 -0.715611 -0.144561
			 0.632698 -0.743495  0.216584
			-0.061736  0.553512  0.830550
			-0.249067  0.009930  0.968435
			 0.147284  0.902343  0.405073
			-0.374860 -0.649001  0.662026
			 0.190409  0.905522 -0.379176
			 0.248256  0.900737 -0.356430
			-0.023687 -0.957564  0.287246
			-0.511419 -0.844364  0.159687
			 0.073509  0.344252 -0.935995
			 0.108722  0.160115 -0.981093
			 0.216164 -0.093102 -0.971908
			 0.106584 -0.844261 -0.525227
			-0.049360  0.580315  0.812895
			-0.264718 -0.093257  0.959806
			 0.164863  0.977222  0.133633
			-0.389143 -0.757589  0.524048
			 0.186042  0.923585 -0.335230
			-0.536588 -0.843344  0.029072
			 0.201107  0.358097 -0.911769
			 0.182226  0.424185 -0.887052
			-0.510842 -0.604549 -0.611197
			-0.595869 -0.562880 -0.572806
			 0.080469  0.126921 -0.988643
			-0.140457  0.002040 -0.990085
			-0.015456  0.215603  0.976359
			-0.004497 -0.053011  0.998584
			 0.112630  0.981979  0.151765
			-0.078302 -0.722786  0.686622
			 0.065906  0.904025 -0.422368
			-0.253063 -0.967448  0.001938
			-0.070637  0.286284 -0.955537
			-0.292693 -0.797343 -0.527802
			 0.032717  0.098520 -0.994597
			-0.096792  0.020788 -0.995088
			-0.230040 -0.071371 -0.970561
			-0.119508 -0.204052 -0.971638
			 0.050607  0.654595  0.754284
			 0.023867  0.133369  0.990779
			 0.150088  0.973645  0.171723
			-0.042122 -0.681726  0.730394
			 0.190833  0.910555 -0.366705
			-0.113455 -0.987004  0.113801
			 0.141005  0.297081 -0.944384
			-0.082460 -0.920114 -0.382872
			 0.072310 -0.162371 -0.984077
			 0.020037 -0.510901 -0.859406
			 0.087597  0.962234  0.257744
			 0.031752  0.278496  0.959912
			 0.083885  0.995527 -0.043473
			 0.023773 -0.536917  0.843300
			 0.128354  0.951007 -0.281268
			 0.054299 -0.936859  0.345465
			 0.187132  0.489267 -0.851821
			 0.112775 -0.908177 -0.403109
			 0.165595  0.021694 -0.985955
			 0.171473 -0.411675 -0.895054
			 0.115651  0.580158  0.806251
			 0.029774  0.199680  0.979409
			 0.236745  0.907026  0.348217
			 0.113819 -0.180975  0.976879
			 0.309032  0.918152 -0.247984
			 0.298182 -0.806786  0.510082
			 0.321799  0.555478 -0.766740
			 0.373495 -0.797581 -0.473674
			 0.316401  0.255492 -0.913572
			 0.375308 -0.132305 -0.917409
			-0.016707  0.665422  0.746281
			-0.278758  0.218710  0.935125
			 0.135209  0.928666  0.345396
			-0.272978 -0.299433  0.914233
			 0.281045  0.953524 -0.108656
			-0.014333 -0.885007  0.465357
			 0.493623  0.706485 -0.507164
			 0.153911 -0.848954 -0.505557
			 0.481497  0.295662 -0.825073
			 0.297147 -0.211243 -0.931171
			-0.183305  0.877448  0.443265
			-0.930187  0.359920  0.072177
			 0.143979  0.901995  0.407033
			-0.855367 -0.507507  0.103849
			 0.210619  0.972800 -0.096438
			-0.768527 -0.639510  0.019829
			 0.293635  0.806789 -0.512709
			-0.657225 -0.662344 -0.359661
			 0.167382  0.278112 -0.945852
			-0.336207 -0.308578 -0.889800
			-0.536840  0.838502 -0.093366
			-0.720103  0.134085 -0.680788
			-0.361592  0.890606  0.275810
			-0.798947 -0.376193 -0.469215
			-0.354024  0.930954 -0.089400
			-0.942543 -0.261728 -0.207631
			-0.500619  0.771060 -0.393506
			-0.946332 -0.304475 -0.108399
			-0.738094  0.226090 -0.635689
			-0.898729 -0.248223 -0.361484
			-0.968739  0.180087 -0.170624
			 0.871722  0.088651  0.481915
			 0.732739 -0.316450  0.602455
			 0.910422 -0.407707  0.070049
			 0.278442  0.360513  0.890225
			 0.105423  0.008158  0.994394
			 0.930567  0.284921  0.229925
			 0.436326  0.798354  0.415031
			 0.547207 -0.705479  0.450404
			-0.023844 -0.397522  0.917283
			 0.947545  0.317713 -0.034890
			 0.952971  0.182479 -0.241968
			 0.859693 -0.278198 -0.428409
			 0.600731 -0.685068 -0.412072
			 0.522586 -0.830091 -0.194559
			 0.495404 -0.856434  0.145241
			 0.180539  0.417100  0.890749
			 0.075583 -0.124027  0.989396
			 0.279025  0.867451  0.411915
			-0.175275 -0.620039  0.764742
			 0.504261  0.834428 -0.222375
			 0.346017  0.898093 -0.271480
			-0.114922 -0.929222  0.351196
			-0.517059 -0.823426  0.233707
			 0.507607  0.471154 -0.721352
			 0.376004  0.080559 -0.923110
			 0.164808 -0.336402 -0.927185
			-0.046329 -0.877415 -0.477489
			 0.110392  0.544716  0.831323
			 0.034116 -0.326629  0.944537
			 0.172970  0.917834  0.357299
			-0.144398 -0.907934  0.393453
			 0.201358  0.927054 -0.316269
			-0.423999 -0.905299  0.025673
			 0.320714  0.485684 -0.813175
			 0.098200  0.459799 -0.882577
			-0.599214 -0.615849 -0.511539
			-0.554366 -0.697120 -0.454645
			 0.081487  0.094511 -0.992183
			-0.286233 -0.175656 -0.941921
			-0.138182  0.453296  0.880584
			-0.223920  0.126216  0.966400
			-0.005495  0.927566  0.373619
			-0.334994 -0.630284  0.700372
			 0.029937  0.924767 -0.379353
			-0.254568 -0.957005  0.139053
			-0.086056  0.285512 -0.954504
			-0.199848 -0.913640 -0.354009
			-0.094110  0.012972 -0.995477
			-0.112871 -0.153200 -0.981728
			-0.328955 -0.297594 -0.896229
			-0.114134 -0.501679 -0.857492
			-0.068195  0.128546  0.989356
			-0.116408  0.181749  0.976431
			 0.109873  0.859511  0.499168
			-0.156391 -0.061810  0.985759
			 0.213817  0.909726 -0.355922
			-0.110978 -0.932801  0.342880
			 0.178463  0.293799 -0.939060
			 0.005965 -0.956188 -0.292694
			 0.105906 -0.226250 -0.968295
			 0.080127 -0.624937 -0.776552
			 0.030546  0.357970  0.933233
			 0.026919 -0.010341  0.999584
			 0.125309  0.894284  0.429597
			 0.048090 -0.405344  0.912898
			 0.233585  0.946658 -0.221982
			 0.121627 -0.933434  0.337504
			 0.312527  0.598352 -0.737768
			 0.242847 -0.920392 -0.306439
			 0.320387  0.018261 -0.947111
			 0.302825 -0.563580 -0.768553
			 0.126285  0.495359  0.859460
			 0.021947  0.066110  0.997571
			 0.239742  0.893765  0.379087
			 0.040895 -0.420466  0.906386
			 0.290175  0.937778 -0.190714
			 0.222736 -0.907465  0.356225
			 0.251652  0.633760 -0.731450
			 0.381122 -0.860171 -0.338899
			 0.291035  0.128989 -0.947977
			 0.421291 -0.405131 -0.811408
			 0.059074  0.408668  0.910769
			-0.040810  0.059102  0.997417
			 0.196881  0.883833  0.424355
			-0.096883 -0.330860  0.938693
			 0.236508  0.936024 -0.260619
			-0.052594 -0.916615  0.396298
			 0.112351  0.531285 -0.839710
			 0.099367 -0.879493 -0.465423
			 0.097367  0.169512 -0.980707
			 0.190029 -0.239924 -0.952011
			-0.291833  0.604506  0.741219
			-0.252561  0.026268  0.967225
			-0.244971  0.928090  0.280425
			-0.445904 -0.510648  0.735125
			-0.159653  0.938082 -0.307430
			-0.760303 -0.623753  0.181304
			-0.076662  0.551649 -0.830546
			-0.817221 -0.333871 -0.469766
			-0.215391  0.276248 -0.936639
			-0.527537  0.091348 -0.844607
			-0.841144  0.538045  0.054628
			-0.969846  0.107776  0.218594
			-0.835482  0.548130 -0.039031
			-0.956154 -0.292017 -0.022274
			-0.818149  0.489410 -0.301846
			-0.991219 -0.024772 -0.129888
			-0.669936  0.275574 -0.689380
			-0.948329  0.247907 -0.198028
			-0.718171  0.239613 -0.653312
			-0.846801  0.314403 -0.429044
			-0.933211  0.126426 -0.336355
			 0.632371  0.092411  0.769134
			 0.572099 -0.078620  0.816408
			 0.974342  0.018223  0.224333
			-0.133145  0.438202  0.888961
			-0.267314 -0.032237  0.963070
			 0.787743  0.423665  0.447179
			 0.016481  0.905655  0.423694
			 0.622916 -0.184950  0.760111
			-0.165994 -0.499384  0.850330
			 0.893260  0.435173 -0.112742
			 0.868599  0.105971 -0.484051
			 0.835437  0.000662 -0.549586
			 0.873796 -0.060346 -0.482534
			 0.913997 -0.372075 -0.161771
			 0.796000 -0.423693  0.432283
			-0.322225  0.365729  0.873163
			-0.495571 -0.079296  0.864940
			-0.155896  0.893603  0.420917
			-0.523382 -0.467585  0.712345
			 0.127412  0.919410 -0.372091
			-0.105103  0.883309 -0.456858
			 0.182440 -0.905659  0.382750
			-0.338129 -0.896428  0.286507
			 0.126158  0.381424 -0.915751
			 0.223506  0.076745 -0.971677
			 0.413187 -0.227881 -0.881673
			 0.424908 -0.811736 -0.400671
			-0.274842  0.101079  0.956161
			-0.394253 -0.226740  0.890591
			-0.166699  0.843811  0.510093
			-0.547081 -0.421150  0.723419
			-0.034070  0.871267 -0.489625
			-0.567624 -0.796068  0.209948
			-0.221861  0.203321 -0.953645
			-0.040541  0.095658 -0.994588
			-0.096278 -0.813787 -0.573133
			-0.472508 -0.793081 -0.384395
			-0.157290  0.049510 -0.986311
			 0.008584 -0.085018 -0.996342
			-0.271466 -0.113363  0.955748
			-0.329164 -0.291954  0.898006
			-0.182162  0.799151  0.572866
			-0.385834 -0.335005  0.859595
			 0.041064  0.924806 -0.378217
			-0.319872 -0.883257  0.342840
			 0.198898  0.393171 -0.897695
			-0.209492 -0.964153 -0.162858
			-0.127519 -0.233099 -0.964056
			 0.142682 -0.279027 -0.949624
			-0.296432 -0.420260 -0.857618
			-0.081064 -0.815234 -0.573430
			-0.060972  0.166040  0.984232
			-0.056005 -0.188849  0.980408
			 0.051915  0.852772  0.519696
			-0.042104 -0.459931  0.886956
			 0.190178  0.925392 -0.327844
			 0.010348 -0.934081  0.356912
			 0.235696  0.455980 -0.858213
			 0.101870 -0.958204 -0.267335
			 0.233821 -0.077485 -0.969187
			 0.195626 -0.623199 -0.757201
			-0.060328  0.438895  0.896511
			-0.053014  0.024372  0.998296
			 0.022688  0.905374  0.424007
			 0.016525 -0.406801  0.913368
			 0.158738  0.931023 -0.328632
			 0.202473 -0.889193  0.410294
			 0.241741  0.475310 -0.845956
			 0.389027 -0.831344 -0.396895
			 0.302832  0.134370 -0.943524
			 0.398317 -0.250966 -0.882247
			-0.070831  0.559177  0.826017
			-0.006521  0.174702  0.984600
			-0.018017  0.931447  0.363430
			 0.085671 -0.283364  0.955178
			 0.120056  0.951165 -0.284379
			 0.249590 -0.850492  0.462999
			 0.242001  0.586960 -0.772602
			 0.429087 -0.796961 -0.425132
			 0.319086  0.277040 -0.906329
			 0.420684 -0.141004 -0.896183
			-0.135393  0.621118  0.771933
			-0.074170  0.238011  0.968426
			-0.091732  0.944959  0.314065
			-0.017938 -0.253208  0.967246
			 0.067063  0.965272 -0.252493
			 0.117312 -0.880065  0.460133
			 0.217080  0.640277 -0.736832
			 0.310059 -0.819546 -0.481880
			 0.271900  0.328695 -0.904450
			 0.332873 -0.098375 -0.937826
			-0.564927  0.674673  0.475051
			-0.542778  0.228123  0.808302
			-0.513493  0.854736  0.075837
			-0.532387 -0.339593  0.775397
			-0.382560  0.840983 -0.382617
			-0.443166 -0.849621  0.285916
			-0.169502  0.489651 -0.855284
			-0.264948 -0.793220 -0.548274
			-0.070169  0.266551 -0.961263
			-0.103923 -0.096915 -0.989852
			-0.808823  0.439139 -0.391103
			-0.993425 -0.031464 -0.110078
			-0.890891  0.301236 -0.339955
			-0.801149 -0.598380 -0.010070
			-0.881438  0.116058 -0.457818
			-0.822036 -0.555212 -0.126476
			-0.684646 -0.081979 -0.724251
			-0.808687 -0.455504 -0.372212
			-0.646797 -0.055764 -0.760621
			-0.710694 -0.162142 -0.684561
			-0.808985 -0.283588 -0.514899
			 0.589623  0.379306  0.713072
			 0.508081 -0.128013  0.851743
			 0.893083 -0.257890  0.368640
			 0.156446  0.615851  0.772174
			-0.077564  0.091611  0.992769
			 0.701162  0.594507  0.393616
			 0.309858  0.884826  0.347952
			 0.479046 -0.678676  0.556700
			-0.037219 -0.577468  0.815565
			 0.733112  0.666006  0.137777
			 0.819873  0.569211 -0.061699
			 0.954193 -0.146738 -0.260737
			 0.666792 -0.739976 -0.088453
			 0.584093 -0.809451  0.060206
			 0.539699 -0.819257  0.193759
			-0.022245  0.490539  0.871135
			-0.327477  0.113377  0.938032
			 0.187088  0.891425  0.412745
			-0.448709 -0.313017  0.837066
			 0.346515  0.927465 -0.140488
			 0.250833  0.928014 -0.275449
			 0.239661 -0.921687  0.305050
			-0.306011 -0.887440  0.344684
			 0.317160  0.653055 -0.687698
			 0.390846  0.059469 -0.918533
			 0.498922 -0.533809 -0.682733
			 0.410944 -0.885780 -0.215682
			-0.192666  0.528701  0.826653
			-0.226626 -0.050625  0.972665
			-0.090785  0.930685  0.354379
			-0.328904 -0.622308  0.710320
			 0.088140  0.973112 -0.212799
			-0.674992 -0.724413  0.140042
			 0.119930  0.432129 -0.893802
			 0.286148  0.755263 -0.589659
			-0.057508 -0.815735 -0.575560
			-0.616304 -0.271297 -0.739302
			 0.032221  0.137734 -0.989945
			 0.087553 -0.079076 -0.993016
			-0.246582  0.516870  0.819782
			-0.224793  0.136543  0.964792
			-0.162731  0.934753  0.315841
			-0.237666 -0.589313  0.772157
			 0.001509  0.995884 -0.090621
			-0.436897 -0.880643  0.183272
			 0.244783  0.920101 -0.305771
			-0.496017 -0.718935 -0.486929
			 0.423081  0.145852 -0.894276
			 0.660219  0.002702 -0.751068
			 0.051716 -0.488221 -0.871186
			-0.171531  0.366375  0.914520
			-0.271794  0.205720  0.940110
			-0.039174  0.909956  0.412851
			-0.290212 -0.177075  0.940437
			 0.092613  0.946551 -0.308972
			-0.058218 -0.922312  0.382037
			 0.201304  0.384249 -0.901016
			 0.063898 -0.997496 -0.030304
			 0.207879 -0.405469 -0.890158
			 0.148501 -0.859683 -0.488767
			-0.057232  0.356085  0.932699
			-0.072684  0.036501  0.996687
			 0.063851  0.868284  0.491942
			-0.008696 -0.359345  0.933164
			 0.181314  0.855857 -0.484390
			 0.180526 -0.886088  0.426917
			 0.117853 -0.217394 -0.968943
			 0.260761 -0.963585  0.059219
			 0.185729 -0.456167 -0.870297
			 0.377306 -0.717292 -0.585775
			-0.027695  0.582907  0.812067
			-0.107033  0.183929  0.977095
			 0.114865  0.907813  0.403339
			-0.055586 -0.356080  0.932801
			 0.206723  0.912763 -0.352320
			 0.187829 -0.876988  0.442280
			 0.220149  0.260879 -0.939934
			 0.372347 -0.915503 -0.152355
			 0.258041  0.039882 -0.965310
			 0.459249 -0.298571 -0.836627
			-0.176553  0.689690  0.702251
			-0.596808  0.346540  0.723692
			-0.009444  0.931319  0.364082
			-0.732476 -0.594320  0.332057
			 0.150244  0.951888 -0.267088
			-0.425197 -0.891628  0.155584
			 0.300665  0.562471 -0.770212
			-0.038059 -0.771853 -0.634661
			 0.268080  0.316566 -0.909901
			 0.168656  0.031384 -0.985175
			-0.360005  0.882839  0.301647
			-0.496491  0.283723 -0.820364
			-0.170550  0.950547  0.259562
			-0.464144 -0.118947 -0.877737
			-0.002734  0.967150 -0.254190
			-0.869306  0.056084 -0.491082
			 0.188904  0.666062 -0.721579
			-0.793899  0.382418 -0.472737
			 0.138109  0.374752 -0.916781
			-0.207285  0.450124 -0.868575
			-0.404075  0.742151 -0.534729
			-0.320630  0.241509 -0.915898
			-0.496992  0.847225 -0.187640
			-0.340724  0.104154 -0.934376
			-0.474437  0.772390 -0.422284
			-0.649478  0.556571 -0.518080
			-0.252266  0.421694 -0.870940
			-0.692963  0.691457 -0.204181
			-0.216742  0.391484 -0.894295
			-0.451970  0.675401 -0.582715
			-0.616429  0.402126 -0.676986
			 0.485699  0.443473  0.753278
			 0.555042  0.565932 -0.609631
			 0.000817  0.994527 -0.104475
			 0.581805  0.249292  0.774181
			 0.689323  0.626684 -0.363457
			-0.603067  0.394837  0.693119
			-0.443166  0.001036  0.896439
			 0.082286  0.559478 -0.824751
			 0.071873  0.588605 -0.805219
			-0.607775  0.776103 -0.168145
			 0.307565  0.025638  0.951182
			 0.813778  0.498632  0.298550
			 0.703064  0.644894 -0.299688
			 0.192173  0.649952 -0.735277
			-0.732767  0.048016  0.678783
			-0.475148 -0.306056  0.824963
			-0.064279  0.598946 -0.798206
			-0.073225  0.511742 -0.856013
			-0.013087  0.284523 -0.958580
			 0.193435  0.410862 -0.890941
			-0.777314  0.603433 -0.177911
			 0.030518 -0.038962  0.998775
			 0.908705  0.208480  0.361651
			 0.784793  0.346796 -0.513647
			 0.087309  0.292682 -0.952216
			-0.975009  0.041403  0.218275
			-0.487103 -0.175615  0.855506
			-0.525863 -0.140222  0.838932
			-0.402034  0.465507 -0.788461
			 0.082312  0.383577 -0.919833
			 0.078322  0.419628 -0.904311
			 0.454510 -0.668479  0.588691
			-0.305218 -0.490837  0.816040
			 0.871684 -0.480988  0.093906
			 0.736423 -0.321604 -0.595191
			 0.247851  0.113437 -0.962134
			-0.769526  0.177734 -0.613385
			-0.972947 -0.228557 -0.033710
			-0.979584  0.031665  0.198525
			-0.322575  0.126002  0.938120
			-0.108443 -0.018821  0.993924
			-0.362127 -0.273837  0.890998
			 0.156564  0.267598 -0.950726
			-0.098957 -0.012656 -0.995011
			 0.384086 -0.881376  0.275055
			 0.177458 -0.892500  0.414671
			 0.051369 -0.882794  0.466943
			 0.614552 -0.762143 -0.203628
			 0.477621 -0.525941 -0.703750
			-0.827677 -0.483462 -0.284982
			-0.905569 -0.327140 -0.270046
			-0.848250 -0.528015 -0.040882
			-0.642500 -0.615656  0.456248
			 0.129209 -0.393474  0.910211
			 0.204920 -0.308101  0.929022
			 0.223118 -0.576746 -0.785864
			-0.237456 -0.908092 -0.344938
			 0.265752 -0.963366  0.036083
			 0.019978 -0.972265  0.233027
			 0.947440  0.271699  0.168930
			 0.513102 -0.097500  0.852772
			 0.576683 -0.047382  0.815593
			 0.508766 -0.365585  0.779426
			 0.634109  0.237533  0.735856
			 0.750156  0.580307  0.317032
			 0.638317  0.768424  0.045552
			 0.688226  0.686660 -0.234188
			 0.798234  0.268235 -0.539326
			 0.522152 -0.433483 -0.734472
			 0.546395 -0.794982 -0.263546
			-0.078087 -0.116930  0.990066
			-0.137730 -0.655909  0.742168
			-0.212715 -0.843699  0.492873
			-0.057864 -0.447334  0.892493
			 0.041408  0.814793  0.578272
			 0.109850  0.993446 -0.031579
			 0.049627  0.863713 -0.501535
			 0.085688  0.361620 -0.928380
			-0.052205 -0.339609 -0.939117
			-0.089625 -0.575688 -0.812743
			-0.073366 -0.811146 -0.580223
			 0.215299 -0.638555  0.738846
			 0.097456 -0.252301  0.962729
			 0.165765 -0.621450  0.765717
			-0.024471 -0.241983  0.969972
			-0.311368  0.490571  0.813873
			-0.451018  0.892439 -0.011622
			-0.326510  0.935990 -0.131580
			-0.404438  0.491856 -0.771044
			-0.287639 -0.055797 -0.956112
			-0.090291 -0.441327 -0.892792
			 0.165897 -0.648801 -0.742655
			-0.375399 -0.253095  0.891638
			-0.276237 -0.950591 -0.141665
			-0.256092 -0.486818  0.835120
			-0.282046 -0.413478  0.865728
			-0.943273  0.282533  0.174386
			-0.859506  0.417925 -0.294261
			-0.568457 -0.145667 -0.809714
			-0.391882 -0.503606 -0.769941
			-0.947453 -0.271652 -0.168929
			-0.259809  0.965477 -0.018806
			-0.262212  0.441152  0.858272
			 0.457668  0.847521  0.268791
			-0.304992  0.177838  0.935603
			-0.468058  0.327240  0.820875
			-0.947360  0.110468  0.300510
			-0.863636  0.090282 -0.495965
			-0.057053  0.423336 -0.904175
			 0.084613  0.556505 -0.826525
			-0.063818  0.288174 -0.955449
			 0.412562  0.516757 -0.750170
			 0.681956  0.731195 -0.017042
			 0.455484  0.880846  0.129014
			 0.418906  0.132319  0.898337
			-0.450889 -0.262267  0.853179
			 0.961927  0.273287  0.003292
			-0.071042 -0.095460  0.992895
			 0.040018 -0.093497  0.994815
			-0.609599 -0.444481  0.656374
			-0.821906 -0.417014  0.388033
			-0.836977 -0.441524 -0.323304
			-0.103297 -0.272854 -0.956494
			 0.215688 -0.121263 -0.968903
			 0.223994 -0.252771 -0.941240
			 0.379080 -0.309216 -0.872172
			 0.914371 -0.042826 -0.402606
			-0.244355 -0.281277  0.927995
			 0.900567 -0.135924  0.412921
			-0.251394 -0.078735  0.964677
			 0.948568 -0.111252 -0.296380
			 0.002481 -0.076958  0.997031
			-0.634550 -0.388619  0.668073
			-0.801585 -0.381186  0.460607
			-0.487059 -0.384151 -0.784348
			 0.142500 -0.053457 -0.988350
			 0.429747 -0.095147 -0.897922
			 0.563430 -0.309777 -0.765888
			 0.536432 -0.681102  0.498339
			 0.101060 -0.414507  0.904418
			 0.613389 -0.274157 -0.740670
			 0.711849 -0.511075 -0.481739
			-0.169294 -0.582830  0.794763
			-0.507382 -0.848603  0.149788
			 0.072809 -0.572071 -0.816966
			 0.581504 -0.224257 -0.782024
			 0.383402 -0.923578  0.002546
			-0.993219  0.116254 -0.000508
			-0.325510  0.513521  0.793939
			-0.941685  0.332778 -0.049882
			-0.548542 -0.013770  0.836010
			-0.878675 -0.400770 -0.259449
			-0.851385 -0.068934 -0.519992
			-0.646253  0.563820  0.514261
			-0.275363  0.451022  0.848972
			-0.790007  0.212415 -0.575124
			-0.822418  0.496250 -0.278146
			-0.304344 -0.952481 -0.012437
			-0.088120  0.464685  0.881081
			 0.220268 -0.321304  0.921003
			 0.088751 -0.938556  0.333520
			-0.710527 -0.578031 -0.401286
			-0.550600 -0.133302 -0.824058
			-0.156918  0.823474  0.545222
			-0.294310  0.955477  0.021102
			-0.298452  0.262530  0.917608
			-0.218795  0.094761  0.971159
			-0.093495  0.051062 -0.994309
			-0.205798  0.475668 -0.855212
			-0.346203  0.868489 -0.354783
			 0.090356 -0.967636 -0.235620
			 0.212062 -0.977189 -0.011459
			 0.036964 -0.994961  0.093205
			 0.042659 -0.299347  0.953190
			 0.199100 -0.948263  0.247299
			-0.276070 -0.666989 -0.692034
			 0.038430  0.091955 -0.995021
			 0.132581  0.923907  0.358913
			 0.264033  0.646902  0.715405
			 0.013620  0.997621 -0.067576
			 0.218982  0.299217  0.928717
			 0.108178  0.059521  0.992348
			 0.222834  0.145656 -0.963913
			 0.348220  0.220704 -0.911061
			 0.116824  0.784305 -0.609277
			 0.125859 -0.990675  0.052176
			 0.094396 -0.993742 -0.059721
			 0.102581 -0.581217  0.807257
			 0.251999 -0.966558  0.047556
			-0.037931 -0.329219 -0.943492
			 0.349175  0.038423 -0.936269
			 0.508311  0.593462  0.624037
			 0.405865  0.855846  0.320627
			 0.403794  0.901401 -0.156294
			 0.569084  0.411515  0.711898
			 0.513689  0.272631  0.813509
			 0.770671  0.288379 -0.568246
			 0.778944  0.296306 -0.552674
			 0.711489  0.515114 -0.477955
			 0.290121 -0.954217  0.072800
			 0.294933 -0.920435  0.256543
			 0.359791 -0.859586 -0.362854
			 0.796401 -0.344421  0.497110
			 0.815207 -0.569280  0.106573
			 0.928977 -0.346938 -0.128980
			 0.945536  0.276251  0.172186
			 0.786635 -0.580086  0.211436
			 0.371154  0.084068 -0.924758
			 0.430653  0.727530 -0.534078
			 0.958889  0.271194 -0.083576
			-0.467237  0.296045 -0.833095
			-0.783211 -0.013407 -0.621611
			-0.700386 -0.051943 -0.711872
			 0.102312 -0.438903 -0.892691
			 0.588191 -0.368859 -0.719704
			 0.915066 -0.199885 -0.350287
			 0.823751  0.566767  0.014482
			 0.278132  0.910721 -0.305334
			-0.305125  0.797956 -0.519774
			 0.962915  0.225336  0.148387
			 0.978765 -0.167712  0.117860
			-0.643249  0.562829 -0.519090
			-0.890462  0.006068 -0.455017
			-0.887256 -0.427980 -0.172073
			-0.995783  0.009316 -0.091267
			-0.633229 -0.559167 -0.535120
			 0.256631 -0.805847 -0.533620
			 0.854765 -0.503799 -0.124753
			 0.925329  0.342369  0.162940
			 0.582281  0.806105  0.105568
			-0.321354  0.946559  0.027515
			-0.477467  0.876379 -0.063130
			 0.985703  0.042623  0.163010
			 0.815572 -0.420830  0.397170
			 0.866982 -0.311644  0.388870
			-0.876078  0.401213 -0.267425
			-0.948170 -0.096225 -0.302844
			-0.840416 -0.317245 -0.439382
			-0.861859  0.094325 -0.498299
			-0.920050 -0.203362 -0.334890
			-0.310405 -0.950519  0.012732
			 0.353702 -0.894274  0.274170
			 0.850674 -0.030485  0.524808
			 0.609083  0.597788  0.521218
			-0.245352  0.902100  0.354990
			-0.578758  0.796485  0.175070
			-0.758252  0.649575  0.055737
			 0.289881 -0.719897  0.630648
			 0.685628 -0.444050  0.576831
			-0.828829  0.029879 -0.558704
			-0.703432 -0.175734 -0.688695
			-0.839995 -0.512444 -0.178351
			-0.319865 -0.835362  0.447053
			 0.471118  0.450778  0.758187
			 0.722791 -0.268391  0.636819
			-0.253735  0.842618  0.474988
			-0.563848  0.813375  0.143163
			-0.699535  0.714106  0.026515
			-0.422844 -0.884091  0.198961
			 0.196875 -0.850221  0.488226
			 0.497684 -0.693664  0.520712
			-0.936211  0.137172 -0.323563
			-0.651929 -0.679907 -0.335731
			 0.291196  0.102723  0.951133
			-0.161871  0.556388  0.815003
			 0.282209 -0.644750  0.710391
			-0.549162  0.651434  0.523502
			-0.916521 -0.123539  0.380430
			-0.224256 -0.916044  0.332524
			-0.310896 -0.120944  0.942717
			-0.998735  0.046999  0.017851
			-0.883611  0.128234 -0.450318
			-0.926938 -0.334863 -0.169269
			-0.757844 -0.474891  0.447382
			-0.972903  0.118381  0.198609
			-0.976861  0.172168 -0.126890
			-0.865694 -0.042572  0.498760
			-0.684600  0.217201 -0.695806
			-0.818236  0.121172 -0.561968
			-0.645910  0.062757 -0.760830
			-0.721492 -0.497938 -0.481152
			-0.475324 -0.877417  0.064853
			-0.431230 -0.817502  0.381747
			-0.470876 -0.495335  0.730013
			-0.816447  0.313028  0.485209
			-0.843062  0.535635  0.048404
			-0.839703  0.410957 -0.354982
			-0.477558  0.065633  0.876145
			-0.499680 -0.040935 -0.865243
			-0.305239 -0.202523 -0.930491
			-0.628929  0.372727 -0.682292
			-0.370078  0.257212 -0.892683
			-0.299595  0.286730 -0.909961
			-0.135478 -0.892837 -0.429519
			-0.222507 -0.973987  0.042890
			-0.145444 -0.943492  0.297774
			-0.283342 -0.871068  0.401197
			-0.376448 -0.604207  0.702297
			-0.086754 -0.493178  0.865592
			-0.181801 -0.344152  0.921145
			-0.580755  0.650012  0.490110
			-0.285190  0.291607  0.913034
			-0.645062  0.714032 -0.272127
			-0.017504 -0.045237  0.998823
			-0.181412  0.283286 -0.941721
			-0.120897 -0.031408 -0.992168
			 0.105976 -0.618474 -0.778626
			-0.401630  0.419493 -0.814076
			-0.052272  0.338821 -0.939398
			 0.284289 -0.955676 -0.076576
			 0.297525 -0.923996  0.240229
			 0.286953 -0.843060  0.454872
			 0.209241 -0.883944  0.418164
			 0.061006 -0.860664  0.505505
			-0.286496 -0.630676  0.721226
			-0.300775 -0.358766  0.883641
			-0.044943 -0.172130  0.984048
			-0.442821  0.649411  0.618202
			-0.501768  0.856266  0.122630
			-0.316485  0.383621  0.867567
			-0.141836  0.086895  0.986069
			-0.526114  0.812292 -0.251767
			-0.006375  0.437498 -0.899197
			 0.051374  0.103765 -0.993274
			 0.611386 -0.266191 -0.745218
			 0.652620 -0.740297 -0.161390
			-0.378121  0.532422 -0.757332
			-0.201528  0.085351 -0.975757
			 0.008470  0.273011 -0.961974
			 0.689289 -0.669348  0.277224
			 0.529378 -0.757360  0.382315
			 0.398581 -0.890243  0.220455
			 0.056030 -0.761361  0.645903
			-0.174382 -0.327375  0.928664
			-0.366077 -0.017412  0.930422
			-0.214967 -0.036245  0.975948
			-0.309808  0.821014  0.479537
			-0.310016  0.413441  0.856129
			-0.259568  0.955600  0.139473