<?xml version="1.0"?>
<VTKFile type="PolyData" version="0.1" byte_order="LittleEndian" compressor="vtkZLibDataCompressor">
	<PolyData>
		<Piece NumberOfPoints="8" NumberOfVerts="0" NumberOfLines="0" NumberOfStrips="0" NumberOfPolys="6">
		<PointData Normals="Normals">
		<DataArray type="Float32" Name="Normals" NumberOfComponents="3" format="ascii">
			-0.714124  0.395845 -0.577350
			-0.714124  0.395845  0.577350
			 0.395845  0.714124  0.577350
			 0.395845  0.714124 -0.577350
			 0.714124 -0.395845 -0.577350
			-0.395845 -0.714124 -0.577350
			-0.395845 -0.714124  0.577350
			 0.714124 -0.395845  0.577350
		</DataArray>
	</PointData>
	<Points>
		<DataArray type="Float32" NumberOfComponents="3" format="ascii">
			 0.095107 -0.481336 -0.035000
			 0.095107 -0.481336  0.035000
			 0.191233 -0.453773  0.035000
			 0.191233 -0.453773 -0.035000
			 0.205015 -0.501836 -0.035000
			 0.108889 -0.529399 -0.035000
			 0.108889 -0.529399  0.035000
			 0.205015 -0.501836  0.035000
		</DataArray>
	</Points>
			<Polys>
				<DataArray type="Int32" Name="connectivity" format="ascii">
					0 1 2 3 
					0 3 4 5 
					0 5 6 1 
					1 6 7 2 
					2 7 4 3 
					5 4 7 6 
				</DataArray>
				<DataArray type="Int32" Name="offsets" format="ascii">
					4 8 12 16 20 24 
				</DataArray>
			</Polys>
		</Piece>
	</PolyData>
</VTKFile>
