<?xml version="1.0"?>
<VTKFile type="PolyData" version="0.1" byte_order="LittleEndian" compressor="vtkZLibDataCompressor">
	<PolyData>
		<Piece NumberOfPoints="948" NumberOfVerts="0" NumberOfLines="0" NumberOfStrips="0" NumberOfPolys="1065">
		<PointData Normals="Normals">
		<DataArray type="Float32" Name="Normals" NumberOfComponents="3" format="ascii">
			 0.335741  0.762275  0.553367
			 0.555384  0.182775  0.811260
			 0.970644  0.077513  0.227690
			-0.288385  0.760181  0.582202
			-0.342785 -0.052757  0.937931
			 0.262891  0.938133  0.225376
			-0.224348  0.965869  0.129482
			 0.668965 -0.444228  0.595942
			-0.235537 -0.839704  0.489306
			 0.304154  0.952589 -0.008077
			 0.484067  0.842659 -0.235807
			 0.863994  0.240933 -0.442116
			 0.847209 -0.458170 -0.268919
			 0.749796 -0.661403 -0.018775
			 0.702948 -0.668663  0.242392
			-0.046989  0.709931  0.702702
			-0.213582 -0.198882  0.956467
			 0.008218  0.979869  0.199471
			-0.266027 -0.880069  0.393329
			-0.204571  0.942991 -0.262523
			 0.037161  0.921775 -0.385939
			-0.215214 -0.973526  0.077002
			-0.301364 -0.953229  0.023105
			-0.062331  0.608930 -0.790771
			 0.130468 -0.193954 -0.972296
			-0.031660 -0.713843 -0.699590
			-0.227231 -0.963411 -0.142144
			-0.020192  0.859894  0.510074
			 0.376056  0.237839  0.895553
			-0.153844  0.977222  0.146179
			 0.566196 -0.535769  0.626398
			 0.015284  0.972831 -0.231011
			 0.599187 -0.765366  0.234927
			 0.159037 -0.136904 -0.977734
			 0.396444  0.615538 -0.681135
			-0.371064 -0.863540 -0.341484
			 0.687435 -0.671187 -0.277384
			-0.097004 -0.396933 -0.912707
			-0.410220 -0.201153 -0.889526
			-0.635428  0.663031  0.395753
			-0.380683  0.095766  0.919733
			-0.926283  0.376806 -0.004099
			 0.119490 -0.760495  0.638255
			-0.790230  0.504450 -0.347946
			 0.275643 -0.941457  0.194112
			-0.072818  0.717845 -0.692384
			 0.358428 -0.883399 -0.301887
			 0.486825  0.368474 -0.791977
			 0.150606  0.325947 -0.933315
			 0.619061  0.065858 -0.782576
			 0.310404 -0.298183 -0.902628
			-0.995626  0.031244  0.088048
			-0.949999 -0.267185  0.161596
			-0.825845 -0.556973  0.088102
			-0.945967 -0.286023 -0.152764
			-0.732055 -0.677561 -0.070760
			-0.829434  0.013595 -0.558439
			-0.706694 -0.650740 -0.277706
			-0.762663 -0.210324 -0.611644
			-0.753486 -0.422364 -0.503853
			 0.335480  0.762552  0.553144
			 0.555325  0.183018  0.811245
			 0.970616  0.078037  0.227630
			-0.288281  0.760140  0.582307
			-0.342875 -0.052686  0.937902
			 0.262543  0.938231  0.225374
			-0.224204  0.965880  0.129649
			 0.668952 -0.444114  0.596042
			-0.235740 -0.839511  0.489538
			 0.304118  0.952601 -0.007968
			 0.484163  0.842574 -0.235914
			 0.863751  0.241547 -0.442255
			 0.847426 -0.457677 -0.269074
			 0.749791 -0.661414 -0.018586
			 0.702902 -0.668670  0.242507
			-0.047316  0.709848  0.702764
			-0.213867 -0.198961  0.956387
			 0.007892  0.979865  0.199503
			-0.266323 -0.879894  0.393521
			-0.204487  0.942889 -0.262954
			 0.037031  0.921530 -0.386537
			-0.215356 -0.973484  0.077145
			-0.301567 -0.953161  0.023277
			-0.062081  0.608061 -0.791459
			 0.130422 -0.193904 -0.972312
			-0.031905 -0.713904 -0.699516
			-0.227327 -0.963375 -0.142239
			-0.020308  0.859848  0.510146
			 0.375857  0.237775  0.895653
			-0.153733  0.977224  0.146288
			 0.566063 -0.535684  0.626591
			 0.015470  0.972795 -0.231149
			 0.599215 -0.765270  0.235166
			 0.158881 -0.137600 -0.977662
			 0.396598  0.615378 -0.681191
			-0.371037 -0.863474 -0.341678
			 0.687584 -0.671071 -0.277294
			-0.097068 -0.397346 -0.912521
			-0.410206 -0.201617 -0.889428
			-0.634879  0.663319  0.396152
			-0.380121  0.095898  0.919952
			-0.926122  0.377204 -0.003802
			 0.119615 -0.760433  0.638305
			-0.789989  0.504452 -0.348491
			 0.275643 -0.941416  0.194309
			-0.072583  0.717747 -0.692510
			 0.358547 -0.883388 -0.301776
			 0.486827  0.368613 -0.791912
			 0.150433  0.326367 -0.933196
			 0.619198  0.066043 -0.782452
			 0.310293 -0.298331 -0.902617
			-0.995572  0.031526  0.088559
			-0.949887 -0.267351  0.161983
			-0.825622 -0.557295  0.088149
			-0.945966 -0.286032 -0.152757
			-0.732079 -0.677552 -0.070591
			-0.829161  0.014071 -0.558833
			-0.706681 -0.650835 -0.277518
			-0.762780 -0.209769 -0.611689
			-0.753536 -0.422495 -0.503668
			 0.335421  0.762453  0.553315
			 0.555418  0.182857  0.811217
			 0.970617  0.077698  0.227740
			-0.288260  0.760058  0.582425
			-0.342492 -0.053556  0.937993
			 0.262703  0.938110  0.225692
			-0.224261  0.965873  0.129598
			 0.668826 -0.444565  0.595847
			-0.235193 -0.839877  0.489173
			 0.304143  0.952593 -0.007992
			 0.483930  0.842735 -0.235816
			 0.864021  0.240789 -0.442141
			 0.847027 -0.458555 -0.268835
			 0.749735 -0.661469 -0.018883
			 0.702868 -0.668735  0.242425
			-0.047149  0.709688  0.702937
			-0.213310 -0.199335  0.956433
			 0.007841  0.979878  0.199442
			-0.265731 -0.880034  0.393609
			-0.204427  0.943085 -0.262298
			 0.036799  0.921863 -0.385766
			-0.215068 -0.973563  0.076954
			-0.301195 -0.953282  0.023140
			-0.062171  0.609213 -0.790566
			 0.130555 -0.194020 -0.972271
			-0.031662 -0.714033 -0.699395
			-0.227183 -0.963468 -0.141837
			-0.020239  0.859841  0.510161
			 0.376048  0.237864  0.895549
			-0.153857  0.977216  0.146211
			 0.566222 -0.535577  0.626538
			 0.015292  0.972801 -0.231137
			 0.599153 -0.765359  0.235032
			 0.159065 -0.137002 -0.977716
			 0.396424  0.615543 -0.681142
			-0.371055 -0.863642 -0.341232
			 0.687375 -0.671275 -0.277321
			-0.096825 -0.397074 -0.912665
			-0.410226 -0.201034 -0.889550
			-0.635787  0.662740  0.395665
			-0.381152  0.095874  0.919528
			-0.926293  0.376783 -0.004021
			 0.119323 -0.760448  0.638342
			-0.789821  0.504888 -0.348238
			 0.275605 -0.941471  0.194099
			-0.072557  0.717724 -0.692537
			 0.358394 -0.883400 -0.301924
			 0.487055  0.368385 -0.791878
			 0.150556  0.325721 -0.933402
			 0.619196  0.065604 -0.782491
			 0.310494 -0.298283 -0.902563
			-0.995657  0.030734  0.087881
			-0.950078 -0.267090  0.161293
			-0.826010 -0.556736  0.088047
			-0.945996 -0.285970 -0.152687
			-0.732109 -0.677500 -0.070787
			-0.829415  0.013666 -0.558465
			-0.706686 -0.650694 -0.277834
			-0.762719 -0.210657 -0.611460
			-0.753393 -0.422543 -0.503842
			 0.335421  0.762453  0.553315
			 0.555277  0.183344  0.811205
			 0.970611  0.077809  0.227730
			-0.288264  0.760167  0.582281
			-0.342647 -0.052839  0.937977
			 0.262703  0.938110  0.225692
			-0.224231  0.965872  0.129662
			 0.668936 -0.444105  0.596067
			-0.235205 -0.839772  0.489348
			 0.304143  0.952592 -0.008026
			 0.483986  0.842679 -0.235901
			 0.864023  0.240668 -0.442203
			 0.847013 -0.458566 -0.268862
			 0.749748 -0.661454 -0.018881
			 0.702927 -0.668673  0.242427
			-0.047278  0.710035  0.702577
			-0.213606 -0.198955  0.956446
			 0.007933  0.979861  0.199525
			-0.265598 -0.880207  0.393310
			-0.204461  0.942981 -0.262646
			 0.036931  0.921720 -0.386095
			-0.215080 -0.973557  0.076991
			-0.301264 -0.953259  0.023165
			-0.062314  0.608595 -0.791030
			 0.130361 -0.194376 -0.972226
			-0.031683 -0.714113 -0.699313
			-0.227423 -0.963342 -0.142306
			-0.020062  0.859954  0.509977
			 0.376193  0.237799  0.895506
			-0.153687  0.977238  0.146239
			 0.566125 -0.535830  0.626409
			 0.015341  0.972817 -0.231067
			 0.599206 -0.765303  0.235084
			 0.158753 -0.137242 -0.977733
			 0.396417  0.615621 -0.681076
			-0.371268 -0.863383 -0.341658
			 0.687448 -0.671210 -0.277295
			-0.097172 -0.397367 -0.912500
			-0.410228 -0.201469 -0.889451
			-0.635651  0.662771  0.395831
			-0.380860  0.095441  0.919694
			-0.926248  0.376893 -0.004000
			 0.119375 -0.760362  0.638435
			-0.789835  0.504992 -0.348058
			 0.275815 -0.941397  0.194161
			-0.072503  0.717959 -0.692299
			 0.358506 -0.883407 -0.301770
			 0.486782  0.368634 -0.791930
			 0.150348  0.326382 -0.933204
			 0.619130  0.065866 -0.782522
			 0.310293 -0.298080 -0.902700
			-0.995655  0.030686  0.087918
			-0.950028 -0.267186  0.161426
			-0.825971 -0.556780  0.088138
			-0.946003 -0.285892 -0.152789
			-0.732064 -0.677544 -0.070823
			-0.829338  0.013731 -0.558579
			-0.706670 -0.650763 -0.277713
			-0.762714 -0.210241 -0.611609
			-0.753703 -0.422136 -0.503720
			 0.335211  0.762691  0.553114
			 0.555334  0.182481  0.811360
			 0.970570  0.077992  0.227838
			-0.288291  0.760037  0.582436
			-0.342753 -0.053446  0.937904
			 0.262340  0.938295  0.225344
			-0.224248  0.965877  0.129592
			 0.668710 -0.444625  0.595932
			-0.236077 -0.839542  0.489323
			 0.304088  0.952611 -0.007940
			 0.484014  0.842660 -0.235913
			 0.863771  0.241445 -0.442272
			 0.847347 -0.457886 -0.268968
			 0.749797 -0.661408 -0.018563
			 0.702817 -0.668697  0.242680
			-0.047196  0.709703  0.702919
			-0.213615 -0.199248  0.956383
			 0.007895  0.979882  0.199422
			-0.266614 -0.879815  0.393501
			-0.204427  0.943085 -0.262298
			 0.036817  0.921778 -0.385965
			-0.215783 -0.973391  0.077127
			-0.301923 -0.953051  0.023178
			-0.062141  0.609029 -0.790710
			 0.130570 -0.194910 -0.972091
			-0.031697 -0.714379 -0.699041
			-0.227345 -0.963378 -0.142189
			-0.020294  0.859863  0.510122
			 0.375958  0.237836  0.895595
			-0.153730  0.977232  0.146233
			 0.566155 -0.535698  0.626496
			 0.015323  0.972771 -0.231260
			 0.599169 -0.765329  0.235093
			 0.158900 -0.136544 -0.977807
			 0.396209  0.615417 -0.681381
			-0.371153 -0.863544 -0.341375
			 0.687392 -0.671316 -0.277178
			-0.096531 -0.397801 -0.912379
			-0.410021 -0.202694 -0.889268
			-0.635088  0.663245  0.395940
			-0.380448  0.096097  0.919796
			-0.926165  0.377099 -0.003911
			 0.119571 -0.760400  0.638353
			-0.789850  0.504810 -0.348287
			 0.275734 -0.941409  0.194218
			-0.072633  0.717885 -0.692363
			 0.358583 -0.883368 -0.301794
			 0.486792  0.368534 -0.791970
			 0.150256  0.325917 -0.933382
			 0.619253  0.065581 -0.782448
			 0.310306 -0.298467 -0.902567
			-0.995597  0.031363  0.088331
			-0.950022 -0.266968  0.161822
			-0.825883 -0.556899  0.088206
			-0.945994 -0.285901 -0.152830
			-0.732074 -0.677538 -0.070779
			-0.829284  0.013996 -0.558652
			-0.706640 -0.650801 -0.277702
			-0.762786 -0.210159 -0.611548
			-0.753536 -0.422495 -0.503668
			 0.726499  0.423474  0.541174
			 0.774463  0.118708  0.621382
			 0.971647  0.058208  0.229160
			 0.042168  0.571237  0.819701
			 0.086656 -0.046409  0.995157
			 0.739499  0.596672  0.311645
			 0.052060  0.937075  0.345225
			 0.856500 -0.190032  0.479892
			 0.233417 -0.616263  0.752154
			 0.792261  0.610053  0.012593
			 0.872297  0.441701 -0.209759
			 0.954431  0.145427 -0.260599
			 0.983245 -0.130273 -0.127504
			 0.963331 -0.261509  0.060059
			 0.923204 -0.295221  0.246047
			-0.242233  0.435668  0.866900
			-0.182430 -0.201874  0.962271
			-0.235432  0.903690  0.357652
			-0.053346 -0.733451  0.677646
			 0.113384  0.898775 -0.423494
			-0.149735  0.759432 -0.633122
			 0.401570 -0.871182  0.282458
			 0.070010 -0.976471  0.203971
			 0.218125  0.118056 -0.968754
			 0.344665  0.104591 -0.932881
			 0.489163  0.107185 -0.865581
			 0.574856 -0.700003 -0.423717
			-0.239796  0.450823  0.859800
			-0.078015 -0.159787  0.984064
			-0.278532  0.896708  0.343999
			 0.127946 -0.680405  0.721581
			-0.044979  0.839666 -0.541238
			 0.290199 -0.924081  0.248716
			 0.024175 -0.391602 -0.919817
			 0.366603 -0.075227 -0.927331
			 0.147125 -0.743088 -0.652820
			 0.397342 -0.755682 -0.520638
			-0.069371 -0.017097 -0.997444
			-0.012006  0.371577 -0.928325
			-0.209301  0.564223  0.798652
			 0.058533 -0.026330  0.997938
			-0.296390  0.912004  0.283551
			 0.310530 -0.567630  0.762475
			-0.010076  0.915012 -0.403300
			 0.476151 -0.827633  0.297160
			 0.493416  0.325819 -0.806463
			 0.586303 -0.730235 -0.350721
			 0.343053  0.038388 -0.938531
			 0.557857  0.095037 -0.824478
			 0.230747  0.156974 -0.960268
			 0.528874 -0.127687 -0.839040
			-0.468474  0.550463  0.691030
			-0.330105 -0.072377  0.941165
			-0.473842  0.853559  0.216591
			-0.102454 -0.700599  0.706162
			-0.295578  0.869224 -0.396338
			 0.073877 -0.970097  0.231200
			 0.059959  0.413143 -0.908690
			 0.168559 -0.899377 -0.403372
			 0.184690  0.029166 -0.982364
			 0.172134 -0.353854 -0.919324
			-0.962634  0.153726  0.222943
			-0.937883 -0.233986  0.256175
			-0.929798  0.368045  0.004369
			-0.833269 -0.537826  0.128086
			-0.885634  0.323274 -0.333387
			-0.755057 -0.653320 -0.055338
			-0.809690  0.048501 -0.584851
			-0.725987 -0.613679 -0.310389
			-0.753525 -0.184536 -0.630988
			-0.735425 -0.398378 -0.548128
			-0.958864 -0.225406 -0.172547
			 0.726319  0.423749  0.541201
			 0.774318  0.118731  0.621559
			 0.971621  0.058445  0.229209
			 0.042230  0.571256  0.819685
			 0.086585 -0.046556  0.995156
			 0.739248  0.597039  0.311540
			 0.052029  0.937126  0.345091
			 0.856479 -0.189788  0.480025
			 0.233392 -0.616120  0.752280
			 0.792129  0.610226  0.012448
			 0.872231  0.441755 -0.209920
			 0.954425  0.145416 -0.260629
			 0.983217 -0.130260 -0.127735
			 0.963366 -0.261411  0.059925
			 0.923261 -0.294909  0.246206
			-0.242149  0.435514  0.867002
			-0.182502 -0.201977  0.962236
			-0.235412  0.903711  0.357613
			-0.053635 -0.733353  0.677729
			 0.113351  0.898674 -0.423717
			-0.149884  0.759433 -0.633084
			 0.401645 -0.871124  0.282532
			 0.069817 -0.976490  0.203943
			 0.218006  0.117921 -0.968797
			 0.344764  0.104735 -0.932828
			 0.489264  0.107157 -0.865528
			 0.574781 -0.699991 -0.423839
			-0.239696  0.450598  0.859946
			-0.077913 -0.159869  0.984059
			-0.278446  0.896733  0.344004
			 0.127930 -0.680255  0.721725
			-0.044819  0.839848 -0.540968
			 0.290228 -0.924066  0.248735
			 0.023970 -0.391546 -0.919846
			 0.366772 -0.074858 -0.927294
			 0.147085 -0.742957 -0.652979
			 0.397353 -0.755757 -0.520521
			-0.069432 -0.017028 -0.997441
			-0.011920  0.371698 -0.928277
			-0.209276  0.564026  0.798798
			 0.058517 -0.026439  0.997936
			-0.296205  0.912027  0.283670
			 0.310610 -0.567490  0.762546
			-0.010079  0.915111 -0.403075
			 0.476212 -0.827564  0.297253
			 0.493281  0.326198 -0.806392
			 0.586362 -0.730291 -0.350505
			 0.343239  0.038432 -0.938461
			 0.557863  0.095127 -0.824463
			 0.230896  0.156823 -0.960257
			 0.529031 -0.127841 -0.838918
			-0.468399  0.550115  0.691358
			-0.330244 -0.072396  0.941115
			-0.473696  0.853566  0.216881
			-0.102385 -0.700473  0.706296
			-0.295710  0.869172 -0.396353
			 0.073918 -0.970088  0.231227
			 0.059578  0.413216 -0.908682
			 0.168753 -0.899358 -0.403334
			 0.184600  0.029579 -0.982368
			 0.172531 -0.353426 -0.919415
			-0.962614  0.153294  0.223327
			-0.937867 -0.233861  0.256348
			-0.929845  0.367924  0.004506
			-0.833386 -0.537661  0.128018
			-0.885610  0.323202 -0.333520
			-0.754989 -0.653388 -0.055465
			-0.809682  0.048361 -0.584873
			-0.725977 -0.613796 -0.310181
			-0.753499 -0.184018 -0.631170
			-0.735467 -0.398036 -0.548321
			-0.958858 -0.225410 -0.172574
			 0.740684  0.423525  0.521549
			 0.787974  0.133033  0.601165
			 0.971331  0.078879  0.224264
			 0.072692  0.572165  0.816911
			 0.106350 -0.041675  0.993455
			 0.750439  0.587378  0.303034
			 0.086217  0.933818  0.347205
			 0.868587 -0.159908  0.469027
			 0.245232 -0.610853  0.752808
			 0.800132  0.599526  0.018892
			 0.877234  0.438233 -0.195991
			 0.956814  0.160426 -0.242425
			 0.988866 -0.096839 -0.112984
			 0.972358 -0.223686  0.066970
			 0.934310 -0.258117  0.245846
			-0.238066  0.436429  0.867672
			-0.188693 -0.203582  0.960703
			-0.226346  0.905400  0.359191
			-0.066722 -0.735994  0.673692
			 0.138282  0.898586 -0.416439
			-0.154169  0.758844 -0.632762
			 0.411207 -0.865925  0.284750
			 0.053097 -0.978232  0.200608
			 0.222654  0.119614 -0.967532
			 0.357642  0.118275 -0.926338
			 0.506038  0.123996 -0.853552
			 0.588614 -0.688734 -0.423297
			-0.235140  0.451826  0.860559
			-0.072549 -0.158291  0.984724
			-0.274383  0.897643  0.344893
			 0.134152 -0.678215  0.722515
			-0.035720  0.841888 -0.538469
			 0.296971 -0.921555  0.250089
			 0.001108 -0.392652 -0.919686
			 0.381939 -0.070225 -0.921516
			 0.128513 -0.744526 -0.655107
			 0.405392 -0.752450 -0.519111
			-0.092038 -0.013546 -0.995663
			-0.019621  0.369577 -0.928993
			-0.199412  0.566578  0.799515
			 0.080368 -0.019040  0.996583
			-0.294683  0.912438  0.283935
			 0.335332 -0.554915  0.761329
			 0.006179  0.917746 -0.397121
			 0.500208 -0.812278  0.299994
			 0.524312  0.333242 -0.783611
			 0.610554 -0.714313 -0.342024
			 0.358778  0.044514 -0.932361
			 0.587748  0.105845 -0.802091
			 0.240120  0.160160 -0.957440
			 0.555035 -0.116643 -0.823608
			-0.483005  0.545607  0.684849
			-0.340212 -0.072206  0.937572
			-0.490394  0.845226  0.212384
			-0.109598 -0.701605  0.704087
			-0.307251  0.865496 -0.395618
			 0.066718 -0.970938  0.229846
			 0.057965  0.416185 -0.907431
			 0.161435 -0.900277 -0.404277
			 0.184624  0.029298 -0.982372
			 0.167779 -0.354782 -0.919772
			-0.968454  0.134181  0.209981
			-0.942882 -0.236914  0.234190
			-0.937642  0.347603  0.000366
			-0.845153 -0.522919  0.110783
			-0.894222  0.301653 -0.330716
			-0.771474 -0.633202 -0.062318
			-0.819586  0.029646 -0.572188
			-0.743217 -0.595647 -0.304687
			-0.765943 -0.191497 -0.613726
			-0.751002 -0.390388 -0.532535
			-0.957808 -0.229758 -0.172670
			 0.764373  0.431895  0.478749
			 0.816641  0.151553  0.556892
			 0.971672  0.098161  0.214982
			 0.117616  0.602140  0.789679
			 0.148220 -0.036348  0.988286
			 0.764056  0.579690  0.283157
			 0.125551  0.936306  0.327976
			 0.889921 -0.131736  0.436676
			 0.276607 -0.631082  0.724723
			 0.806099  0.590636  0.036781
			 0.883616  0.439867 -0.160438
			 0.963137  0.176184 -0.203289
			 0.994536 -0.066186 -0.080738
			 0.978869 -0.187971  0.080519
			 0.945957 -0.222259  0.236149
			-0.236797  0.467388  0.851749
			-0.198594 -0.218002  0.955529
			-0.213629  0.917068  0.336673
			-0.076221 -0.766442  0.637775
			 0.153557  0.907038 -0.392048
			-0.172979  0.762349 -0.623621
			 0.425147 -0.865549  0.264717
			 0.038451 -0.983506  0.176743
			 0.231871  0.137318 -0.963005
			 0.402405  0.150994 -0.902924
			 0.541449  0.145498 -0.828048
			 0.598679 -0.687655 -0.410749
			-0.230871  0.484368  0.843852
			-0.056077 -0.165189  0.984667
			-0.267712  0.908214  0.321680
			 0.158334 -0.701734  0.694622
			-0.025942  0.854185 -0.519321
			 0.309612 -0.922339  0.231153
			-0.040773 -0.407327 -0.912372
			 0.418263 -0.064186 -0.906055
			 0.103162 -0.753806 -0.648949
			 0.415956 -0.759361 -0.500351
			-0.142851 -0.004710 -0.989733
			-0.042678  0.378376 -0.924667
			-0.181925  0.602158  0.777373
			 0.130862 -0.005721  0.991384
			-0.289935  0.920337  0.262521
			 0.390404 -0.560042  0.730711
			 0.026360  0.930310 -0.365826
			 0.532404 -0.798126  0.282030
			 0.584152  0.360166 -0.727356
			 0.639154 -0.704596 -0.308264
			 0.399277  0.055400 -0.915155
			 0.650919  0.123057 -0.749108
			 0.262139  0.167230 -0.950430
			 0.612993 -0.112116 -0.782093
			-0.507897  0.569144  0.646619
			-0.360502 -0.068323  0.930253
			-0.506305  0.841831  0.187017
			-0.103761 -0.733730  0.671472
			-0.325912  0.869886 -0.370242
			 0.066440 -0.976204  0.206424
			 0.043861  0.448474 -0.892719
			 0.153464 -0.912980 -0.378044
			 0.184802  0.026237 -0.982426
			 0.165272 -0.385810 -0.907654
			-0.977356  0.121542  0.173215
			-0.952808 -0.239143  0.186999
			-0.943644  0.330629 -0.014860
			-0.856322 -0.511405  0.071958
			-0.905891  0.282185 -0.315804
			-0.785662 -0.613719 -0.078006
			-0.843071  0.012554 -0.537655
			-0.762174 -0.580041 -0.287477
			-0.792234 -0.202847 -0.575516
			-0.776936 -0.389018 -0.495010
			-0.956680 -0.234265 -0.172866
			 0.486484  0.684300  0.543201
			 0.576467 -0.137127  0.805532
			 0.971472 -0.234339  0.036443
			-0.172120  0.842155  0.511028
			-0.136364 -0.094936  0.986099
			 0.485322  0.844133  0.227820
			-0.129382  0.983773  0.124300
			 0.459441 -0.811481  0.361127
			 0.035916 -0.940642  0.337495
			 0.550790  0.828172 -0.103742
			 0.626320  0.578728 -0.522301
			 0.696545 -0.064851 -0.714576
			 0.597850 -0.669798 -0.440394
			 0.499227 -0.860953 -0.097640
			 0.446626 -0.891136  0.080011
			-0.035099  0.766074  0.641793
			-0.076815 -0.267408  0.960517
			 0.044460  0.976770  0.209626
			 0.029397 -0.990308  0.135742
			-0.099066  0.970305 -0.220667
			 0.068215  0.941084 -0.331222
			-0.069596 -0.996694 -0.041919
			-0.114704 -0.978448 -0.171704
			-0.111002  0.629039 -0.769408
			-0.109005 -0.279462 -0.953949
			-0.126161 -0.875314 -0.466807
			-0.201162 -0.972262 -0.119335
			-0.015584  0.802276  0.596750
			 0.128396 -0.168046  0.977382
			-0.042918  0.985578  0.163688
			 0.212946 -0.940814  0.263671
			 0.064489  0.961035 -0.268800
			 0.245247 -0.968519 -0.042710
			 0.010831  0.336952 -0.941460
			 0.306164  0.564644 -0.766447
			-0.300371 -0.953820  0.002274
			 0.272373 -0.959152 -0.076428
			-0.087322 -0.532555 -0.841879
			-0.215145 -0.944426 -0.248539
			-0.164168  0.862291  0.479065
			-0.088342 -0.025911  0.995753
			-0.168975  0.980883  0.096521
			 0.124898 -0.879974  0.458308
			-0.047167  0.981694 -0.184531
			 0.378981 -0.917400  0.121449
			 0.246877  0.760361 -0.600752
			 0.578769 -0.791252 -0.197350
			 0.461028 -0.198605 -0.864875
			 0.526368  0.151323 -0.836683
			 0.380173 -0.805025 -0.455415
			 0.611180 -0.469643 -0.637099
			-0.460940  0.685546  0.563525
			-0.757717 -0.114333  0.642490
			-0.212325  0.958772  0.188876
			-0.498773 -0.798845  0.336262
			-0.233876  0.930471 -0.282003
			-0.058113 -0.993268  0.100211
			-0.290672  0.533512 -0.794277
			 0.189924 -0.928256 -0.319795
			-0.129173 -0.047424 -0.990487
			 0.125452 -0.554066 -0.822966
			-0.983998 -0.108488  0.141348
			-0.985047 -0.170066 -0.027559
			-0.980628  0.192849  0.034316
			-0.976197 -0.185807 -0.111871
			-0.947725  0.056793 -0.313993
			-0.925277 -0.358617 -0.123515
			-0.911423 -0.232181 -0.339707
			-0.887400 -0.396810 -0.234657
			-0.907679 -0.284770 -0.308262
			-0.897733 -0.294106 -0.327989
			-0.975967 -0.197631 -0.091815
			 0.700731  0.227038  0.676336
			 0.677990 -0.131497  0.723214
			 0.927661 -0.267371  0.260686
			-0.006219  0.510270  0.859992
			-0.026807 -0.094203  0.995192
			 0.791924  0.464178  0.396731
			 0.059427  0.922368  0.381715
			 0.693005 -0.499810  0.519552
			 0.048148 -0.655888  0.753321
			 0.872931  0.487693 -0.012139
			 0.921744  0.282951 -0.265191
			 0.929048 -0.121680 -0.349377
			 0.844842 -0.488469 -0.218264
			 0.785120 -0.619340 -0.002304
			 0.735056 -0.640615  0.222050
			-0.176706  0.413068  0.893392
			-0.181290 -0.182784  0.966294
			-0.115749  0.907470  0.403857
			-0.122224 -0.702769  0.700840
			 0.157745  0.882293 -0.443482
			 0.005323  0.786785 -0.617204
			 0.180164 -0.947644  0.263651
			-0.030658 -0.977196  0.210113
			 0.198253  0.088455 -0.976151
			 0.260820  0.029948 -0.964923
			 0.369694 -0.000096 -0.929153
			 0.353748 -0.805424 -0.475556
			-0.175157  0.426434  0.887397
			-0.126148 -0.165480  0.978112
			-0.139586  0.908774  0.393251
			-0.022860 -0.688011  0.725340
			 0.058154  0.839130 -0.540813
			 0.095947 -0.967033  0.235883
			 0.062290 -0.356670 -0.932151
			 0.265226 -0.111988 -0.957661
			 0.093210 -0.734490 -0.672188
			 0.225247 -0.791955 -0.567512
			 0.036694 -0.001047 -0.999326
			 0.084512  0.383770 -0.919553
			-0.151146  0.531877  0.833224
			-0.049208 -0.077101  0.995808
			-0.144656  0.931520  0.333685
			 0.081896 -0.635250  0.767952
			 0.074126  0.903890 -0.421294
			 0.209780 -0.937861  0.276423
			 0.364495  0.236587 -0.900650
			 0.332928 -0.837459 -0.433384
			 0.257376 -0.000829 -0.966311
			 0.388600  0.006435 -0.921384
			 0.203473  0.137523 -0.969374
			 0.353267 -0.196453 -0.914663
			-0.291108  0.577825  0.762479
			-0.266250 -0.049892  0.962612
			-0.247532  0.926129  0.284628
			-0.169772 -0.661209  0.730739
			-0.090414  0.915309 -0.392473
			-0.047543 -0.970694  0.235569
			 0.129249  0.386383 -0.913238
			 0.064342 -0.891604 -0.448221
			 0.177743  0.028390 -0.983667
			 0.137393 -0.322601 -0.936511
			-0.864251  0.399284  0.306010
			-0.922393 -0.062559  0.381152
			-0.789537  0.611589  0.050901
			-0.854714 -0.468793  0.222930
			-0.749192  0.578299 -0.322927
			-0.783638 -0.620718 -0.024926
			-0.715809  0.302987 -0.629139
			-0.741755 -0.567165 -0.357943
			-0.705740  0.002552 -0.708466
			-0.713686 -0.295995 -0.634853
			-0.985967 -0.016442 -0.166127
			 0.714689  0.239400  0.657197
			 0.694855 -0.111498  0.710454
			 0.938102 -0.235498  0.253980
			 0.013613  0.509662  0.860267
			-0.013256 -0.093014  0.995577
			 0.796695  0.466829  0.383859
			 0.081709  0.919743  0.383922
			 0.714719 -0.471425  0.516657
			 0.058487 -0.653692  0.754497
			 0.872867  0.487872 -0.009193
			 0.921855  0.285853 -0.261670
			 0.934885 -0.099023 -0.340859
			 0.867440 -0.450856 -0.210421
			 0.810967 -0.585082  0.003329
			 0.760344 -0.608690  0.226656
			-0.174446  0.413127  0.893809
			-0.184682 -0.182913  0.965627
			-0.110651  0.907685  0.404802
			-0.129795 -0.703010  0.699235
			 0.174519  0.881192 -0.439368
			 0.002965  0.786771 -0.617237
			 0.190942 -0.944888  0.265948
			-0.040502 -0.977201  0.208416
			 0.202071  0.088846 -0.975333
			 0.269991  0.033405 -0.962283
			 0.386755  0.006704 -0.922158
			 0.369417 -0.799734 -0.473241
			-0.172657  0.426659  0.887779
			-0.123223 -0.165061  0.978556
			-0.137257  0.908972  0.393612
			-0.019394 -0.687377  0.726042
			 0.063326  0.839667 -0.539396
			 0.099952 -0.966431  0.236687
			 0.048219 -0.356216 -0.933159
			 0.274170 -0.110836 -0.955273
			 0.082769 -0.734174 -0.673898
			 0.229982 -0.791127 -0.566769
			 0.022666  0.000368 -0.999743
			 0.080502  0.383281 -0.920117
			-0.145823  0.532343  0.833875
			-0.036871 -0.075397  0.996472
			-0.143540  0.931625  0.333872
			 0.097484 -0.631807  0.768971
			 0.083755  0.904346 -0.418503
			 0.226223 -0.933331  0.278776
			 0.386361  0.238318 -0.891027
			 0.349937 -0.832753 -0.429030
			 0.266508  0.000077 -0.963833
			 0.410151  0.008877 -0.911975
			 0.208537  0.138019 -0.968227
			 0.370309 -0.193830 -0.908461
			-0.300719  0.576622  0.759655
			-0.275227 -0.049667  0.960095
			-0.258016  0.923942  0.282415
			-0.178811 -0.661383  0.728422
			-0.097374  0.914505 -0.392683
			-0.056405 -0.970615  0.233934
			 0.129556  0.387650 -0.912657
			 0.055488 -0.891481 -0.449647
			 0.178404  0.028531 -0.983544
			 0.132359 -0.322568 -0.937246
			-0.874599  0.380215  0.300855
			-0.927903 -0.066914  0.366767
			-0.802147  0.595090  0.049269
			-0.864900 -0.455201  0.211518
			-0.761615  0.560563 -0.325133
			-0.796730 -0.603622 -0.029373
			-0.726792  0.282508 -0.626069
			-0.755194 -0.551329 -0.354568
			-0.714294 -0.004394 -0.699832
			-0.724879 -0.286322 -0.626554
			-0.985705 -0.024508 -0.166691
			 0.714437  0.239299  0.657508
			 0.694812 -0.111174  0.710547
			 0.938050 -0.235643  0.254037
			 0.013608  0.509725  0.860230
			-0.012968 -0.093019  0.995580
			 0.796529  0.466844  0.384186
			 0.081491  0.919788  0.383861
			 0.714827 -0.471348  0.516578
			 0.058756 -0.653784  0.754396
			 0.872854  0.487889 -0.009514
			 0.921699  0.286140 -0.261907
			 0.934909 -0.098730 -0.340878
			 0.867398 -0.451082 -0.210108
			 0.810869 -0.585217  0.003535
			 0.760321 -0.608836  0.226343
			-0.174405  0.413266  0.893753
			-0.184579 -0.183118  0.965608
			-0.110625  0.907747  0.404670
			-0.129740 -0.703164  0.699091
			 0.174427  0.881176 -0.439435
			 0.003046  0.786720 -0.617303
			 0.191122 -0.944887  0.265823
			-0.040587 -0.977203  0.208393
			 0.202030  0.088941 -0.975332
			 0.270099  0.033663 -0.962244
			 0.387132  0.006823 -0.921999
			 0.369715 -0.799697 -0.473069
			-0.172601  0.426524  0.887854
			-0.123280 -0.165202  0.978525
			-0.137119  0.909009  0.393574
			-0.019421 -0.687438  0.725983
			 0.063466  0.839590 -0.539500
			 0.099964 -0.966463  0.236552
			 0.048318 -0.356222 -0.933151
			 0.274147 -0.111032 -0.955257
			 0.082704 -0.734228 -0.673847
			 0.229967 -0.791242 -0.566613
			 0.022830  0.000617 -0.999739
			 0.080593  0.383362 -0.920075
			-0.146093  0.532394  0.833795
			-0.036914 -0.075496  0.996463
			-0.143835  0.931661  0.333644
			 0.097505 -0.631900  0.768892
			 0.083596  0.904356 -0.418512
			 0.226216 -0.933364  0.278673
			 0.386360  0.238280 -0.891038
			 0.350002 -0.832763 -0.428958
			 0.266447  0.000422 -0.963849
			 0.410093  0.009126 -0.911998
			 0.208577  0.138222 -0.968189
			 0.370326 -0.193600 -0.908503
			-0.300901  0.576852  0.759408
			-0.275153 -0.049762  0.960112
			-0.258226  0.923981  0.282096
			-0.178743 -0.661422  0.728404
			-0.097607  0.914432 -0.392793
			-0.056372 -0.970598  0.234012
			 0.129452  0.387685 -0.912657
			 0.055507 -0.891477 -0.449653
			 0.178356  0.028683 -0.983548
			 0.132195 -0.322586 -0.937263
			-0.874640  0.380104  0.300874
			-0.927870 -0.066941  0.366845
			-0.802143  0.595103  0.049188
			-0.865020 -0.454922  0.211627
			-0.761712  0.560210 -0.325515
			-0.796851 -0.603456 -0.029487
			-0.726691  0.282340 -0.626262
			-0.755248 -0.551137 -0.354751
			-0.714312 -0.004100 -0.699815
			-0.724963 -0.286202 -0.626512
			-0.985691 -0.024431 -0.166782
			 0.714356  0.239823  0.657404
			 0.694850 -0.110882  0.710556
			 0.938079 -0.235554  0.254010
			 0.013529  0.510001  0.860068
			-0.013070 -0.092615  0.995616
			 0.796452  0.466987  0.384170
			 0.081510  0.919747  0.383955
			 0.714832 -0.471447  0.516480
			 0.058794 -0.653848  0.754338
			 0.872796  0.487996 -0.009299
			 0.921763  0.286101 -0.261722
			 0.934869 -0.098846 -0.340953
			 0.867313 -0.451142 -0.210329
			 0.810755 -0.585376  0.003358
			 0.760281 -0.608917  0.226259
			-0.174384  0.413313  0.893735
			-0.184621 -0.182955  0.965631
			-0.110680  0.907709  0.404740
			-0.129865 -0.703115  0.699117
			 0.174569  0.881178 -0.439375
			 0.002990  0.786739 -0.617279
			 0.191116 -0.944920  0.265707