<?xml version="1.0"?>
<VTKFile type="PolyData" version="0.1" byte_order="LittleEndian" compressor="vtkZLibDataCompressor">
	<PolyData>
		<Piece NumberOfPoints="997" NumberOfVerts="0" NumberOfLines="0" NumberOfStrips="0" NumberOfPolys="1451">
		<PointData Normals="Normals">
		<DataArray type="Float32" Name="Normals" NumberOfComponents="3" format="ascii">
			 0.905291 -0.323988  0.274736
			 0.882383 -0.331328 -0.334099
			 0.929733  0.317578 -0.186388
			 0.885059  0.465177  0.016765
			 0.867360  0.433203  0.244994
			 0.827545  0.255043  0.500122
			 0.771987 -0.251032  0.583969
			 0.563948 -0.687765  0.457102
			 0.462428 -0.842985  0.274840
			 0.424614 -0.895595  0.132715
			 0.540655 -0.838381 -0.069351
			 0.411656 -0.198482 -0.889463
			 0.552893  0.590946 -0.587445
			 0.136229 -0.882478 -0.450194
			 0.565065  0.806068 -0.175944
			 0.547154  0.795326  0.260919
			 0.527200  0.526176  0.667232
			 0.511144 -0.141144  0.847827
			 0.270338 -0.734426  0.622523
			 0.096515 -0.946033  0.309363
			 0.049942 -0.998460 -0.024175
			-0.363207  0.091854 -0.927170
			-0.218381  0.704068 -0.675720
			-0.519855 -0.562683 -0.642759
			-0.341091  0.882284 -0.324395
			-0.576471 -0.792832 -0.197734
			-0.570634  0.796730  0.198993
			-0.307065  0.526711  0.792646
			-0.054149  0.004085  0.998525
			-0.161043 -0.555460  0.815800
			-0.480127 -0.803392  0.352192
			-0.496835  0.140439 -0.856406
			-0.354541  0.656376 -0.665937
			-0.667710 -0.398642 -0.628688
			-0.469203  0.815318 -0.339271
			-0.743703 -0.625997 -0.234593
			-0.650111  0.756417  0.072039
			-0.667358 -0.704800  0.240606
			-0.427415  0.619405  0.658525
			-0.219331  0.002242  0.975648
			-0.361139 -0.611545  0.703982
			-0.064835 -0.068304 -0.995556
			 0.179547  0.624771 -0.759885
			-0.312505 -0.711879 -0.628942
			 0.256420  0.917616 -0.303692
			-0.400498 -0.903534 -0.152404
			 0.227549  0.941721  0.247757
			-0.436103 -0.826454  0.356074
			 0.076754  0.591715  0.802485
			-0.347614 -0.382005  0.856293
			-0.109232  0.162650  0.980619
			 0.257097 -0.141848 -0.955919
			 0.433576  0.618749 -0.655104
			-0.009005 -0.817721 -0.575544
			 0.430379  0.877092 -0.213269
			-0.111631 -0.988618 -0.100857
			 0.356892  0.835687  0.417439
			-0.187958 -0.787056  0.587550
			 0.040916  0.233901  0.971399
			-0.123161  0.146224  0.981555
			-0.095029  0.254024  0.962518
			 0.328558 -0.066658 -0.942129
			 0.436192  0.690628 -0.576862
			 0.166982 -0.775652 -0.608672
			 0.448955  0.880380 -0.152873
			 0.083337 -0.989403 -0.118899
			 0.384985  0.800983  0.458489
			 0.066584 -0.803981  0.590915
			 0.096813  0.158032  0.982676
			 0.159623  0.020690  0.986961
			 0.091746  0.125185  0.987882
			-0.039058  0.108035 -0.993379
			 0.070190  0.802311 -0.592766
			-0.014413 -0.667367 -0.744590
			 0.195276  0.962513 -0.188246
			-0.039229 -0.979083 -0.199645
			 0.159073  0.901869  0.401657
			 0.020333 -0.834552  0.550553
			 0.054224  0.334022  0.941004
			 0.274095 -0.194998  0.941726
			 0.226903  0.072000  0.971252
			-0.799502  0.153165 -0.580807
			-0.818554  0.368762 -0.440435
			-0.648469 -0.168646 -0.742325
			-0.513265  0.795525 -0.322023
			-0.695211 -0.617127 -0.368559
			-0.443245  0.846389  0.295228
			-0.653231 -0.534975  0.535810
			-0.391180  0.429252  0.814076
			-0.103048  0.024102  0.994384
			-0.088245  0.259103  0.961810
			-0.986368  0.161761 -0.030199
			-0.924302 -0.361838 -0.121402
			-0.816985  0.437185 -0.376039
			-0.945907 -0.083804 -0.313429
			-0.913479  0.236739 -0.330924
			-0.983677  0.179923 -0.002558
			-0.966667  0.196734  0.163860
			-0.892674  0.325148  0.312110
			-0.609397  0.376674  0.697677
			-0.530128  0.523425  0.667076
			-0.863024  0.353509 -0.360862
			-0.916644  0.060986 -0.395025
			-0.757058  0.512277 -0.405506
			-0.943227  0.088578 -0.320119
			-0.833723  0.466403 -0.295592
			-0.954106  0.199428 -0.223406
			-0.919590  0.385436 -0.076106
			-0.894793  0.423353 -0.141836
			-0.882717  0.418048  0.214586
			-0.798726  0.564734  0.207635
			-0.828886  0.479954 -0.287388
			 0.671080 -0.715857 -0.192873
			 0.522602 -0.410136 -0.747446
			 0.623700 -0.231975 -0.746449
			 0.906387 -0.070536 -0.416518
			 0.981044 -0.103778  0.163654
			 0.832029 -0.339061  0.439050
			 0.703875 -0.497521  0.506984
			 0.571818 -0.704568  0.420249
			 0.451428 -0.877794  0.160286
			 0.435783 -0.875375 -0.209315
			 0.482311 -0.659187 -0.576931
			 0.027728  0.028976 -0.999196
			 0.286044  0.580814 -0.762125
			-0.181216 -0.544856 -0.818714
			 0.431834  0.850548 -0.300145
			 0.464483  0.801958  0.375659
			 0.245625  0.281072  0.927721
			 0.146151  0.198434  0.969156
			 0.097189 -0.008500  0.995230
			-0.168800 -0.812521  0.557958
			-0.268003 -0.920207 -0.285294
			-0.308192  0.116569 -0.944156
			 0.107105  0.711080 -0.694905
			-0.714874 -0.500004 -0.488827
			 0.348614  0.889740 -0.294671
			-0.791372 -0.611308 -0.005737
			 0.488758  0.794761  0.359821
			 0.309105  0.287473  0.906539
			 0.178277  0.008341  0.983945
			-0.069678 -0.197009  0.977922
			-0.597291 -0.565991  0.568240
			-0.439343 -0.132060 -0.888559
			 0.035886  0.598318 -0.800455
			-0.768057 -0.638549  0.048410
			 0.302168  0.881180 -0.363615
			-0.765174 -0.514153  0.387499
			 0.422581  0.837337  0.346831
			-0.668818 -0.499273  0.550826
			 0.272875  0.353199  0.894868
			 0.120429 -0.018433  0.992551
			-0.143850 -0.233097  0.961755
			-0.285057 -0.566798 -0.772970
			-0.094549 -0.195585 -0.976118
			-0.459515 -0.887885  0.022506
			 0.303922  0.744536 -0.594389
			-0.482850 -0.758531  0.437591
			 0.360145  0.816925  0.450476
			-0.516018 -0.650526  0.557263
			 0.070217  0.198921  0.977497
			-0.178355 -0.070093  0.981467
			-0.070987  0.046241  0.996405
			-0.148555 -0.360644 -0.920797
			 0.061769  0.069897 -0.995640
			-0.321180 -0.760172 -0.564784
			 0.411062  0.851799 -0.324756
			-0.390378 -0.920006  0.034541
			 0.425129  0.896598  0.124002
			-0.337961 -0.849991  0.404102
			 0.263139  0.402058  0.876988
			-0.125440 -0.463620  0.877110
			 0.047354 -0.115329  0.992198
			 0.103305  0.042688 -0.993733
			 0.357824  0.709286 -0.607351
			-0.100827 -0.471899 -0.875868
			 0.362984  0.926828 -0.096091
			-0.216894 -0.910102 -0.353089
			 0.332104  0.942526  0.036765
			-0.177559 -0.888270  0.423615
			 0.318844  0.649845  0.689957
			-0.004730 -0.403596  0.914925
			 0.162459  0.073072  0.984006
			 0.169522  0.163160 -0.971927
			 0.273651  0.536523 -0.798285
			 0.120870 -0.206874 -0.970873
			 0.460170  0.830123 -0.314864
			 0.034383 -0.872180 -0.487975
			 0.539360  0.803511  0.251916
			 0.111777 -0.869929  0.480343
			 0.441066  0.454964  0.773607
			 0.277321 -0.218714  0.935552
			 0.343703  0.170682  0.923437
			-0.005520  0.444250 -0.895886
			 0.129799  0.768860 -0.626104
			-0.077338 -0.124151 -0.989245
			 0.357527  0.892364 -0.275430
			-0.196732 -0.841968 -0.502380
			 0.450219  0.879534  0.154023
			 0.002275 -0.886128  0.463434
			 0.496422  0.617036  0.610600
			 0.391914 -0.413222  0.821980
			 0.555679  0.113118  0.823665
			-0.652557  0.745455 -0.135890
			-0.196872  0.974890  0.104072
			-0.864861 -0.275389 -0.419735
			 0.148142  0.988398  0.033516
			-0.867636 -0.456484 -0.197053
			 0.477094  0.864745  0.156836
			-0.631544 -0.622448  0.462288
			 0.432355  0.660446  0.613907
			-0.036088 -0.454621  0.889953
			 0.345501  0.139850  0.927939
			-0.660626  0.314470  0.681676
			-0.411893  0.787627  0.458245
			-0.922442 -0.194769  0.333415
			-0.339742  0.916143  0.212737
			-0.995176 -0.044637  0.087364
			 0.003480  0.992935  0.118606
			-0.964670 -0.131981  0.228020
			-0.174920  0.869506  0.461911
			-0.833291 -0.109931  0.541794
			-0.573641  0.417183  0.704908
			-0.881573  0.440132  0.170624
			 0.762775 -0.642859 -0.070049
			 0.592959 -0.488804 -0.639899
			 0.841286 -0.112898 -0.528670
			 0.968790  0.042963 -0.244131
			 0.998717  0.039607  0.031557
			 0.968269 -0.093620  0.231712
			 0.746261 -0.547818  0.378140
			 0.395809 -0.852238  0.342088
			 0.285295 -0.943275  0.169820
			 0.236646 -0.960107 -0.148977
			 0.326021 -0.825374 -0.460942
			 0.052818  0.022050 -0.998361
			 0.286108  0.327623 -0.900447
			-0.147000 -0.353332 -0.923876
			 0.604126  0.676743 -0.420773
			 0.706719  0.672471  0.219844
			 0.607264  0.327862  0.723696
			 0.413930 -0.121692  0.902138
			 0.136163 -0.520271  0.843076
			-0.237997 -0.870398  0.431004
			-0.373738 -0.856595 -0.355760
			-0.061656 -0.047966 -0.996944
			 0.310421  0.335738 -0.889336
			-0.525505 -0.212051 -0.823941
			 0.518501  0.750466 -0.409826
			-0.836075 -0.453811 -0.308275
			 0.575558  0.772005  0.269707
			 0.439841  0.381149  0.813182
			 0.207269 -0.113610  0.971665
			-0.164963 -0.448519  0.878418
			-0.661411 -0.593875  0.458092
			-0.125601 -0.197998 -0.972122
			 0.343464  0.444375 -0.827383
			-0.625926 -0.519552 -0.581621
			 0.458114  0.813645 -0.357929
			-0.804140 -0.579001 -0.134597
			 0.479970  0.818638  0.315375
			-0.665997 -0.583446  0.464800
			 0.292899  0.377365  0.878525
			 0.049875  0.023121  0.998488
			-0.278600 -0.286617  0.916642
			-0.407370 -0.321107 -0.854950
			-0.134279  0.341366 -0.930290
			-0.493678 -0.666393 -0.558751
			 0.237692  0.875807 -0.420077
			-0.500456 -0.865186 -0.031565
			 0.313196  0.874439  0.370494
			-0.448247 -0.775873  0.443955
			 0.086986  0.309598  0.946880
			-0.207479 -0.181695  0.961218
			-0.061777  0.087707  0.994229
			-0.312364 -0.339731 -0.887137
			-0.215617 -0.065252 -0.974295
			-0.254032 -0.551407 -0.794618
			 0.306103  0.779400 -0.546660
			-0.309572 -0.942150 -0.128527
			 0.440633  0.835710  0.327767
			-0.277209 -0.898706  0.339826
			 0.266523  0.300036  0.915939
			-0.105977 -0.523508  0.845404
			 0.070862 -0.141789  0.987357
			 0.055362 -0.068740 -0.996097
			 0.175648  0.309753 -0.934452
			 0.007798 -0.512742 -0.858507
			 0.388639  0.814467 -0.430817
			-0.075911 -0.961211 -0.265162
			 0.448773  0.868843  0.209079
			-0.065979 -0.940254  0.334018
			 0.399669  0.543416  0.738217
			 0.061865 -0.585949  0.807983
			 0.251804 -0.027522  0.967387
			 0.099370  0.055628 -0.993494
			 0.235045  0.463059 -0.854594
			 0.102236 -0.433862 -0.895160
			 0.466035  0.800172 -0.377541
			 0.065131 -0.935421 -0.347484
			 0.544236  0.819822  0.178043
			 0.071410 -0.923917  0.375871
			 0.469997  0.548500  0.691557
			 0.134530 -0.413778  0.900383
			 0.267025  0.155441  0.951071
			-0.021653  0.100701 -0.994681
			 0.141717  0.395431 -0.907497
			-0.112938 -0.266390 -0.957226
			 0.419039  0.802364 -0.424991
			-0.248775 -0.880966 -0.402504
			 0.513406  0.823450  0.241547
			-0.183752 -0.853764  0.487157
			 0.375126  0.476889  0.794895
			-0.006086 -0.189658  0.981831
			 0.149403  0.215287  0.965054
			-0.368265  0.171249 -0.913813
			 0.032929  0.591914 -0.805328
			-0.855611 -0.075356 -0.512104
			 0.096894  0.942361 -0.320263
			-0.976594 -0.205848 -0.062370
			 0.071397  0.947087  0.312935
			-0.842385 -0.193853  0.502800
			-0.011474  0.543717  0.839190
			-0.349520 -0.036525  0.936217
			-0.075514  0.156713  0.984753
			-0.919017  0.391499 -0.046226
			-0.606590  0.781904 -0.143784
			-0.938879  0.204912  0.276616
			-0.619757  0.784793  0.001093
			-0.893162  0.390820  0.222533
			-0.680814  0.668936  0.298356
			-0.869761  0.426365  0.248454
			-0.643541  0.408165  0.647500
			-0.705630  0.345753  0.618499
			-0.592630  0.273718  0.757541
			-0.862212  0.378756  0.336355
			 0.941621 -0.251048 -0.224333
			 0.544172 -0.235749 -0.805171
			 0.642312 -0.097935 -0.760161
			 0.876769  0.181432 -0.445374
			 0.977937  0.175013  0.114063
			 0.861607 -0.133036  0.489831
			 0.792022 -0.229306  0.565791
			 0.807999 -0.306045  0.503463
			 0.768692 -0.617261  0.167636
			 0.655644 -0.619808 -0.431242
			 0.565382 -0.341483 -0.750821
			-0.143852  0.038511 -0.988850
			-0.082341  0.494321 -0.865371
			-0.018113 -0.435763 -0.899879
			 0.234419  0.882042 -0.408718
			 0.394858  0.840444  0.371135
			 0.272307  0.316928  0.908519
			 0.132467  0.029335  0.990753
			 0.135676 -0.309882  0.941045
			 0.114166 -0.897835  0.425274
			 0.040283 -0.916325 -0.398405
			-0.494317  0.093702 -0.864217
			-0.358465  0.482805 -0.799001
			-0.496143 -0.305335 -0.812781
			 0.029014  0.917744 -0.396110
			-0.514834 -0.800227 -0.307542
			 0.231821  0.865256  0.444511
			 0.058535  0.220843  0.973551
			-0.155265  0.099584  0.982841
			-0.243560 -0.013913  0.969786
			-0.402967 -0.711207  0.576023
			-0.548208 -0.058682 -0.834281
			-0.384156  0.247877 -0.889371
			-0.681773 -0.248316 -0.688131
			 0.004801  0.878133 -0.478393
			-0.772737 -0.604309 -0.194137
			 0.226527  0.859824  0.457589
			-0.644163 -0.654659  0.395569
			 0.091976  0.125788  0.987784
			-0.084654 -0.184942  0.979097
			-0.345402 -0.341823  0.873988
			-0.421003 -0.168366 -0.891296
			-0.381939  0.028518 -0.923747
			-0.422168 -0.253846 -0.870251
			 0.004036  0.838073 -0.545544
			-0.528162 -0.776141 -0.344456
			 0.241311  0.894563  0.376198
			-0.408032 -0.896353  0.173383
			 0.213522  0.339749  0.915958
			-0.187583 -0.794050  0.578185
			 0.074046 -0.315962  0.945878
			-0.092349 -0.158925 -0.982962
			 0.039613  0.177459 -0.983331
			-0.177694 -0.420865 -0.889549
			 0.315260  0.800167 -0.510240
			-0.252816 -0.898125 -0.359800
			 0.442727  0.832446  0.333206
			-0.181003 -0.944587  0.273850
			 0.343261  0.347573  0.872562
			-0.019509 -0.637378  0.770304
			 0.170030 -0.146516  0.974486
			 0.018191  0.046025 -0.998775
			 0.129702  0.441153 -0.888010
			-0.018238 -0.386555 -0.922086
			 0.307319  0.857274 -0.413081
			-0.005609 -0.909491 -0.415686
			 0.400160  0.849384  0.344121
			 0.103536 -0.902230  0.418642
			 0.319177  0.364100  0.874961
			 0.230048 -0.324121  0.917618
			 0.253383  0.046122  0.966266
			 0.108913  0.187456 -0.976216
			 0.202344  0.574539 -0.793071
			 0.033709 -0.280417 -0.959286
			 0.289787  0.895431 -0.337974
			 0.030135 -0.883733 -0.467021
			 0.351790  0.881847  0.313990
			 0.154761 -0.882509  0.444103
			 0.319672  0.466475  0.824749
			 0.290552 -0.234340  0.927720
			 0.300403  0.166298  0.939203
			 0.055173  0.274239 -0.960078
			 0.154927  0.645627 -0.747772
			-0.048320 -0.205262 -0.977514
			 0.227955  0.927128 -0.297438
			-0.097775 -0.871650 -0.480278
			 0.272171  0.914945  0.297990
			 0.049845 -0.870663  0.489347
			 0.290278  0.540278  0.789834
			 0.251173 -0.177332  0.951560
			 0.300989  0.238919  0.923214
			-0.416948  0.320615 -0.850506
			-0.217286  0.760106 -0.612393
			-0.625889 -0.207926 -0.751684
			-0.177503  0.970380 -0.163873
			-0.656221 -0.715428 -0.239868
			-0.189891  0.890471  0.413525
			-0.471736 -0.686876  0.552871
			-0.104805  0.489028  0.865949
			-0.159984 -0.072145  0.984480
			-0.046627  0.266043  0.962833
			-0.984865  0.148185  0.089903
			-0.620475  0.742639  0.251988
			-0.923999 -0.354797  0.142638
			-0.751559  0.603121  0.267215
			-0.938863 -0.285685  0.192147
			-0.812608  0.359160  0.458991
			-0.899769 -0.218107  0.377949
			-0.675593  0.115224  0.728215
			-0.738029  0.030668  0.674071
			-0.652656  0.118770  0.748287
			-0.855814 -0.049616  0.514899
			 0.787402 -0.494067 -0.368640
			 0.472169 -0.251181 -0.844964
			 0.635705  0.283818 -0.717863
			 0.821700  0.426223 -0.378342
			 0.893863  0.424331 -0.144748
			 0.953526  0.298402  0.041768
			 0.876899 -0.392480  0.277501
			 0.423631 -0.895142  0.138773
			 0.328783 -0.943652 -0.037722
			 0.326388 -0.927499 -0.182252
			 0.347922 -0.779675 -0.520632
			-0.047357  0.075649 -0.996009
			 0.151254  0.682377 -0.715181
			-0.014824 -0.638881 -0.769162
			 0.467586  0.827570 -0.310630
			 0.636927  0.764875  0.096383
			 0.640271  0.505716  0.578191
			 0.452277  0.129255  0.882462
			 0.254148 -0.511848  0.820622
			 0.122894 -0.952492  0.278670
			 0.044309 -0.959200 -0.279234
			-0.386084  0.187985 -0.903106
			-0.144514  0.587525 -0.796197
			-0.438144 -0.277794 -0.854904
			 0.326307  0.859360 -0.393730
			-0.502990 -0.797808 -0.332422
			 0.558251  0.801767  0.213365
			 0.480923  0.416919  0.771292
			 0.212461  0.213123  0.953645
			 0.004152 -0.006025  0.999973
			-0.310474 -0.717558  0.623471
			-0.340486  0.102668 -0.934628
			-0.012413  0.621614 -0.783225
			-0.730235 -0.092345 -0.676926
			 0.180127  0.925268 -0.333816
			-0.978258 -0.151125 -0.142028
			 0.318478  0.891923  0.321008
			-0.669643 -0.069246  0.739448
			 0.358814  0.503243  0.786129
			 0.352428 -0.119928  0.928122
			-0.064297 -0.581897  0.810717
			-0.349594 -0.187816 -0.917883
			-0.100006  0.488257 -0.866951
			-0.640888 -0.363564 -0.676079
			 0.114887  0.931437 -0.345293
			-0.876385 -0.470161 -0.104389
			 0.224630  0.954230  0.197450
			-0.691523 -0.570808  0.442691
			 0.338890  0.733024  0.589771
			 0.415906 -0.291739  0.861342
			-0.093002 -0.792107  0.603255
			-0.195187 -0.965745  0.170995
			 0.277804  0.186486  0.942363
			-0.342311 -0.123716 -0.931406
			-0.241658  0.270632 -0.931858
			-0.293842 -0.440220 -0.848448
			 0.162679  0.874761 -0.456431
			-0.265112 -0.920582 -0.286782
			 0.355083  0.913141  0.200225
			 0.377625  0.560023  0.737410
			 0.253016  0.071089  0.964847
			 0.027818 -0.942638  0.332657
			 0.229144  0.414977  0.880504
			-0.049337 -0.905424 -0.421631
			 0.370778  0.369387  0.852102
			-0.044470  0.042734 -0.998096
			 0.054643  0.373990 -0.925822
			-0.075625 -0.360031 -0.929870
			 0.303606  0.825991 -0.474934
			 0.430208  0.902520  0.019492
			 0.303047 -0.023294  0.952691
			 0.112213 -0.907521  0.404738
			 0.293209  0.272097  0.916511
			-0.002031 -0.882090 -0.471076
			 0.436603  0.429684  0.790411
			-0.062220 -0.294310 -0.953683
			 0.460391  0.887683  0.007617
			-0.019490  0.217526 -0.975860
			 0.139633  0.634669 -0.760064
			 0.357518  0.877418 -0.319871
			 0.230746 -0.277975  0.932463
			-0.200032 -0.798002  0.568490
			 0.374102  0.082978  0.923668
			-0.543168 -0.777266 -0.317532
			 0.402874  0.444662  0.799980
			-0.672271 -0.314625 -0.670122
			 0.384996  0.875198  0.292929
			-0.553093  0.654634 -0.515308
			 0.217503  0.961116 -0.170142
			 0.022477  0.972647 -0.231198
			 0.050442 -0.189503  0.980584
			-0.540697 -0.020038  0.840979
			 0.284122  0.090340  0.954523
			-0.914422  0.216913  0.341733
			 0.284169  0.574386  0.767678
			-0.779851 -0.062751  0.622812
			 0.218696  0.932430  0.287655
			-0.387581  0.201433  0.899559
			 0.028744  0.992770  0.116542
			-0.094936  0.762999  0.639390
			-0.190403  0.428322  0.883338
			-0.503733  0.669913  0.545408
			-0.078960  0.341433  0.936584
			-0.498272  0.698639  0.513448
			-0.180585  0.450884  0.874124
			-0.347433  0.184353  0.919404
			-0.274305  0.857751  0.434765
			-0.205321  0.126008  0.970549
			-0.305835  0.843565  0.441433
			-0.182179  0.512351  0.839230
			-0.481708  0.556459  0.676986
			 0.274914  0.955776  0.104475
			 0.689533  0.391018  0.609631
			 0.589122  0.292417 -0.753278
			 0.233311  0.515123  0.824751
			-0.370308  0.913564  0.168145
			-0.470873  0.545770 -0.693119
			 0.835358  0.412404  0.363457
			 0.231330  0.545992  0.805219
			 0.627981  0.079267 -0.774181
			-0.425712  0.123149 -0.896439
			 0.103303  0.593461  0.798206
			-0.580873  0.794314  0.177911
			-0.691146  0.248134 -0.678783
			 0.919695  0.255008 -0.298550
			 0.853586  0.426121  0.299688
			 0.363879  0.571804  0.735277
			 0.070667  0.512101  0.856013
			 0.065845  0.277108  0.958580
			 0.299190  0.341628  0.890941
			 0.302717 -0.060131 -0.951182
			-0.541102 -0.163232 -0.824963
			-0.258149  0.558290  0.788461
			-0.925826  0.308548 -0.218275
			-0.516640 -0.034548 -0.855506
			 0.930968 -0.050070 -0.361651
			 0.849981  0.117043  0.513647
			 0.164601  0.257278  0.952216
			 0.184852  0.346029  0.919833
			 0.190954  0.381784  0.904311
			 0.018596 -0.045865 -0.998775
			-0.544142  0.010158 -0.838932
			-0.690726  0.382959  0.613385
			-0.998255  0.048477  0.033710
			-0.932909  0.300448 -0.198525
			-0.275348  0.210035 -0.938120
			-0.109429  0.011799 -0.993924
			 0.252645 -0.767863 -0.588691
			 0.705338 -0.702624 -0.093906
			 0.619249 -0.512131  0.595191
			 0.269517  0.040726  0.962134
			 0.224259  0.214077  0.950726
			-0.098612  0.015111  0.995011
			-0.428687 -0.387693 -0.816040
			-0.423579 -0.163413 -0.890998
			-0.928875 -0.236595  0.284982
			-0.960661 -0.064858  0.270046
			-0.960931 -0.273751  0.040882
			-0.787308 -0.414709 -0.456248
			 0.015747 -0.413846 -0.910211
			 0.112058 -0.352649 -0.929022
			 0.126267 -0.953101 -0.275055
			-0.075422 -0.906840 -0.414671
			 0.380670 -0.902012  0.203628
			 0.314149 -0.637217  0.703750
			 0.055502 -0.615903  0.785864
			-0.478562 -0.807463  0.344938
			-0.193952 -0.862755 -0.466943
			-0.248789 -0.940108 -0.233027
			-0.010083 -0.999298 -0.036083
			 0.541283 -0.204502 -0.815593
			 0.466351 -0.235153 -0.852772
			 0.985628  0.000024 -0.168930
			 0.306102 -0.914792  0.263546
			-0.437029 -0.752384 -0.492873
			-0.107293 -0.090877 -0.990066
			 0.388288 -0.491658 -0.779426
			-0.313188 -0.592537 -0.742168
			 0.675018  0.053547 -0.735856
			 0.881051  0.351056 -0.317032
			 0.825396  0.562713 -0.045552
			 0.850834  0.470359  0.234188
			 0.841247  0.037821  0.539326
			 0.382441 -0.560615  0.734472
			-0.294106 -0.759502  0.580223
			 0.030949 -0.673163 -0.738846
			 0.024137 -0.269390 -0.962729
			-0.178924 -0.414056 -0.892493
			-0.011952 -0.643067 -0.765717
			 0.264391  0.771815 -0.578272
			 0.379426  0.924683  0.031579
			 0.285776  0.816575  0.501535
			 0.182045  0.323993  0.928380
			-0.143791 -0.312063  0.939117
			-0.244834 -0.528682  0.812743
			-0.019363 -0.669395  0.742655
			-0.527555 -0.837626  0.141665
			-0.430619 -0.139817 -0.891638
			-0.380357 -0.397371 -0.835120
			-0.090222 -0.225864 -0.969972
			-0.385090 -0.319718 -0.865728
			-0.164087  0.557392 -0.813873
			-0.187557  0.982185  0.011622
			-0.055868  0.989730  0.131580
			-0.253196  0.584280  0.771044
			-0.291876  0.025649  0.956112
			-0.208440 -0.399344  0.892792
			-0.515514 -0.376080  0.769941
			-0.985628  0.000025  0.168929
			-0.828856  0.531590 -0.174386
			-0.711014  0.638647  0.294261
			-0.586588  0.016664  0.809714
			 0.673547  0.688539 -0.268791
			-0.130456  0.496338 -0.858272
			 0.016378  0.999689  0.018806
			 0.680633  0.721175 -0.129014
			 0.439150  0.011727 -0.898337
			 0.999992 -0.002442 -0.003292
			-0.244159  0.255016 -0.935603
			-0.505713 -0.127826 -0.853179
			-0.359727  0.443578 -0.820875
			-0.880212  0.367317 -0.300510
			-0.805295  0.324835  0.495965
			 0.061844  0.422662  0.904175
			 0.234729  0.511624  0.826525
			 0.018085  0.294602  0.955449
			 0.539018  0.383021  0.750170
			 0.857083  0.514897  0.017042
			 0.828215 -0.378888 -0.412921
			-0.312419 -0.203028 -0.927995
			 0.867146 -0.293202  0.402606
			 0.881157 -0.368403  0.296380
			-0.094602 -0.072180 -0.992895
			 0.012696 -0.100905 -0.994815
			-0.263358 -0.006391 -0.964677
			-0.708499 -0.259234 -0.656374
			-0.905011 -0.174312 -0.388033
			-0.926255 -0.193718  0.323304
			-0.174504 -0.233811  0.956494
			 0.173908 -0.176017  0.968903
			 0.145644 -0.304721  0.941240
			 0.279164 -0.401726  0.872172
			 0.327914 -0.802578 -0.498339
			-0.017109 -0.426305 -0.904418
			 0.456218 -0.453080  0.765888
			 0.514060 -0.432609  0.740670
			 0.543402 -0.687489  0.481739
			-0.018827 -0.074661 -0.997031
			-0.717086 -0.198658 -0.668073
			-0.875602 -0.145473 -0.460607
			-0.574078 -0.235018  0.784348
			 0.122245 -0.090665  0.988350
			 0.386873 -0.209916  0.897922
			 0.113978 -0.993480 -0.002546
			-0.323385 -0.513589 -0.794763
			 0.497164 -0.375854  0.782024
			-0.721633 -0.675876 -0.149788
			-0.087696 -0.569979  0.816966
			-0.813480  0.579450  0.049882
			-0.171355  0.583351 -0.793939
			-0.922700  0.385518  0.000508
			-0.837404  0.168410  0.519992
			-0.465808  0.720110 -0.514261
			-0.700854  0.421942  0.575124
			-0.653774  0.703715  0.278146
			-0.531088  0.137962 -0.836010
			-0.140378  0.509451 -0.848972
			-0.955104 -0.143049  0.259449
			-0.842330 -0.359791  0.401286
			-0.566013  0.023627  0.824058
			-0.019544  0.999586 -0.021102
			 0.076141  0.834827 -0.545222
			-0.214527  0.334625 -0.917608
			-0.075799  0.074855  0.994309
			-0.066714  0.513967  0.855212
			-0.093403  0.930272  0.354783
			-0.555094 -0.831695  0.012437
			 0.043379  0.470973 -0.881081
			 0.123172 -0.369571 -0.921003
			-0.173388 -0.926661 -0.333520
			-0.184199  0.151398 -0.971159
			-0.238716 -0.966606 -0.093205
			-0.449222 -0.565056  0.692034
			 0.062288  0.077800  0.995021
			 0.382108  0.851572 -0.358913
			 0.288074  0.955221  0.067576
			 0.432116  0.549065 -0.715405
			 0.292974  0.227266 -0.928717
			 0.254350  0.078592  0.963913
			 0.395565  0.116172  0.911061
			 0.328483  0.721721  0.609277
			-0.179861 -0.955057  0.235620
			-0.065503 -0.997787  0.011459
			-0.041505 -0.299509 -0.953190
			-0.069989 -0.966408 -0.247299
			 0.120393  0.027398 -0.992348
			-0.152084 -0.986989 -0.052176
			-0.183173 -0.981265  0.059721
			-0.127206 -0.306010  0.943492
			 0.346239 -0.059311  0.936269
			 0.626046  0.710820 -0.320627
			 0.652201  0.430363 -0.624037
			 0.636611  0.755181  0.156294
			 0.660467  0.238712 -0.711898
			 0.820305  0.064782  0.568246
			 0.830442  0.070122  0.552674
			 0.825912  0.299046  0.477955
			-0.061598 -0.586977 -0.807257
			-0.024183 -0.998576 -0.047556
			 0.568937  0.120477 -0.813509
			 0.015864 -0.997220 -0.072800
			 0.029801 -0.966073 -0.256543
			 0.108919 -0.925458  0.362854
			 0.797361 -0.589559  0.128980
			 0.985052  0.004924 -0.172186
			 0.670615 -0.550597 -0.497110
			 0.626713 -0.771928 -0.106573
			 0.596269 -0.774441 -0.211436
			 0.996495 -0.003618  0.083576
			 0.614504  0.580642  0.534078
			 0.379948 -0.021493  0.924758
			 0.824522 -0.444368  0.350287
			 0.987724 -0.048809 -0.148387
			 0.948062  0.317755 -0.014482
			 0.894622 -0.431000 -0.117860
			-0.367536  0.413365  0.833095
			 0.518387  0.798778  0.305334
			-0.073359  0.851148  0.519774
			-0.756567  0.202994  0.621611
			-0.687571  0.143121  0.711872
			-0.022629 -0.450101  0.892691
			 0.463734 -0.516698  0.719704
			 0.682787 -0.719888  0.124753
			 0.959267 -0.230725 -0.163010
			 0.983853  0.074051 -0.162940
			 0.781917  0.614379 -0.105568
			 0.667982 -0.629330 -0.397170
			 0.747496 -0.538544 -0.388870
			-0.463194  0.718329  0.519090
			-0.854295  0.251277  0.455017
			-0.970853 -0.166840  0.172073
			-0.047999  0.998468 -0.027515
			-0.217408  0.974037  0.063130
			-0.954640  0.283430  0.091267
			-0.762826 -0.362964  0.535120
			 0.024568 -0.845367  0.533620
			 0.093504 -0.957125 -0.274170
			 0.809318 -0.263781 -0.524808
			 0.750261  0.406745 -0.521218
			 0.012805  0.934782 -0.354990
			 0.080221 -0.771912 -0.630648
			 0.536671 -0.615833 -0.576831
			-0.731551  0.627150  0.267425
			-0.937963  0.168854  0.302844
			-0.895304 -0.073306  0.439382
			-0.336797  0.925158 -0.175070
			-0.549832  0.833414 -0.055737
			-0.802473  0.328231  0.498299
			-0.940463  0.058116  0.334890
			-0.560379 -0.828139 -0.012732
			-0.537731 -0.714835 -0.447053
			 0.620813 -0.457222 -0.636819
			 0.577119  0.303458 -0.758187
			-0.011648  0.879915 -0.474988
			-0.650152 -0.733291 -0.198961
			-0.045104 -0.871551 -0.488226
			 0.287205 -0.803973 -0.520712
			-0.788485  0.257178  0.558704
			-0.724622  0.024966  0.688695
			-0.317809  0.937284 -0.143163
			-0.475602  0.879261 -0.026515
			-0.948704 -0.261059  0.178351
			 0.308229  0.018480 -0.951133
			 0.093560 -0.697561 -0.710391
			-0.002239  0.579452 -0.815003
			-0.348329  0.777569 -0.523502
			-0.814082 -0.473872  0.335731
			-0.468065 -0.818745 -0.332524
			-0.862134  0.389913  0.323563
			-0.915069  0.133874 -0.380430
			-0.332189 -0.030565 -0.942717
			-0.983331 -0.066392  0.169269
			-0.814036  0.366823  0.450318
			-0.947091  0.320467 -0.017851
			-0.598212  0.397488  0.695806
			-0.830793 -0.279779  0.481152
			-0.698760 -0.712411 -0.064853
			-0.639859 -0.666970 -0.381747
			-0.859384 -0.247605 -0.447382
			-0.891563  0.434758  0.126890
			-0.753139  0.342015  0.561968
			-0.603591  0.238363  0.760830
			-0.902584  0.381964 -0.198609
			-0.843893  0.197695 -0.498760
			-0.491606  0.098381  0.865243
			-0.349238 -0.110542  0.930491
			-0.376329 -0.820908  0.429519
			-0.482355 -0.874925 -0.042890
			-0.399871 -0.866853 -0.297774
			-0.512465 -0.759224 -0.401197
			-0.528407 -0.477038 -0.702297
			-0.589167 -0.346355 -0.730013
			-0.698537  0.525945 -0.485209
			-0.662762  0.747264 -0.048404
			-0.693900  0.626491  0.354982
			-0.501828  0.531645  0.682292
			-0.284845  0.349256  0.892683
			-0.208955  0.358202  0.909961
			-0.440968  0.194723 -0.876145
			-0.096300  0.322315  0.941721
			-0.124871  0.003133  0.992168
			-0.068604 -0.623726  0.778626
			 0.009856 -0.997015  0.076576
			 0.031311 -0.970211 -0.240229
			 0.043458 -0.889496 -0.454872
			-0.042513 -0.907376 -0.418164
			-0.178588 -0.844139 -0.505505
			-0.449235 -0.527276 -0.721226
			-0.388013 -0.261963 -0.883641
			-0.219332 -0.450160 -0.865592
			-0.269620 -0.280709 -0.921145
			-0.379090  0.784909 -0.490110
			-0.193764  0.358920 -0.913034
			-0.423259  0.864175  0.272127
			-0.270443  0.513947  0.814076
			 0.043145  0.340104  0.939398
			-0.029295 -0.038660 -0.998823
			 0.114463  0.422307  0.899197
			 0.077985  0.085585  0.993274
			 0.514329 -0.424400  0.745218
			 0.423285 -0.891506  0.161390
			 0.478090 -0.833413 -0.277224
			 0.300114 -0.873938 -0.382315
			 0.137756 -0.965620 -0.220455
			-0.156000 -0.747311 -0.645903
			-0.257864 -0.266627 -0.928664
			-0.356695  0.084167 -0.930422
			-0.090647 -0.153074 -0.984048
			-0.246311  0.961401 -0.122630
			-0.246665  0.746312 -0.618202
			-0.198484  0.455995 -0.867567
			-0.112390  0.122624 -0.986069
			-0.281835  0.925841  0.251767
			-0.216718  0.616021  0.757332
			-0.170196  0.137594  0.975757
			 0.083394  0.260100  0.961974
			 0.341676  0.200536  0.918174
			 0.720903 -0.473314  0.506234
			 0.746747 -0.664732  0.022378
			 0.428323 -0.900923 -0.069834