<?xml version="1.0"?>
<VTKFile type="PolyData" version="0.1" byte_order="LittleEndian" compressor="vtkZLibDataCompressor">
	<PolyData>
		<Piece NumberOfPoints="8" NumberOfVerts="0" NumberOfLines="0" NumberOfStrips="0" NumberOfPolys="6">
		<PointData Normals="Normals">
		<DataArray type="Float32" Name="Normals" NumberOfComponents="3" format="ascii">
			-0.577350  0.577350 -0.577350
			-0.577350  0.577350  0.577350
			 0.577350  0.577350  0.577350
			 0.577350  0.577350 -0.577350
			 0.577350 -0.577350 -0.577350
			-0.577350 -0.577350 -0.577350
			-0.577350 -0.577350  0.577350
			 0.577350 -0.577350  0.577350
		</DataArray>
	</PointData>
	<Points>
		<DataArray type="Float32" NumberOfComponents="3" format="ascii">
			 0.070000 -0.075000 -0.035000
			 0.070000 -0.075000  0.035000
			 0.170000 -0.075000  0.035000
			 0.170000 -0.075000 -0.035000
			 0.170000 -0.125000 -0.035000
			 0.070000 -0.125000 -0.035000
			 0.070000 -0.125000  0.035000
			 0.170000 -0.125000  0.035000
		</DataArray>
	</Points>
			<Polys>
				<DataArray type="Int32" Name="connectivity" format="ascii">
					0 1 2 3 
					0 3 4 5 
					0 5 6 1 
					1 6 7 2 
					2 7 4 3 
					5 4 7 6 
				</DataArray>
				<DataArray type="Int32" Name="offsets" format="ascii">
					4 8 12 16 20 24 
				</DataArray>
			</Polys>
		</Piece>
	</PolyData>
</VTKFile>
