<?xml version="1.0"?>
<VTKFile type="PolyData" version="0.1" byte_order="LittleEndian" compressor="vtkZLibDataCompressor">
	<PolyData>
		<Piece NumberOfPoints="99" NumberOfVerts="0" NumberOfLines="0" NumberOfStrips="0" NumberOfPolys="194">
		<PointData Normals="Normals">
		<DataArray type="Float32" Name="Normals" NumberOfComponents="3" format="ascii">
			-0.940984  0.052812 -0.334306
			-0.890955 -0.107702 -0.441134
			-0.949196 -0.260682 -0.176269
			-0.989239  0.136506 -0.052658
			-0.814926  0.500005 -0.293071
			-0.742070  0.173098 -0.647587
			-0.769117 -0.493553 -0.406035
			-0.678017  0.029151 -0.734468
			-0.475963 -0.879362  0.013489
			-0.447292 -0.731104  0.515186
			-0.879012 -0.194310  0.435410
			-0.764919  0.605483  0.219750
			-0.510454  0.826851 -0.236124
			-0.404031  0.293527 -0.866372
			-0.395300  0.915226  0.078105
			-0.122930  0.183753 -0.975255
			-0.346031 -0.422638 -0.837639
			 0.286443 -0.951331 -0.113663
			 0.402098 -0.775978  0.485978
			-0.067581 -0.646381  0.760016
			-0.672815  0.121685  0.729735
			-0.724887  0.651241  0.224553
			-0.523332  0.657682 -0.541829
			-0.512777  0.857621  0.039325
			-0.097764  0.093399 -0.990817
			-0.539149  0.825735 -0.165769
			 0.359836 -0.515736 -0.777518
			 0.352018 -0.137654 -0.925816
			 0.535626  0.209750 -0.817991
			 0.635588 -0.772023  0.002903
			 0.673565 -0.688812  0.268047
			 0.490415 -0.835539  0.247725
			-0.069965 -0.821578  0.565786
			-0.094376 -0.430086  0.897841
			-0.591146  0.400482  0.700115
			-0.569839 -0.050747  0.820188
			-0.851142  0.221967  0.475697
			-0.639244  0.749627 -0.171541
			-0.161223  0.814838 -0.556818
			-0.092643  0.230543 -0.968642
			-0.337343  0.933478  0.121732
			-0.315158  0.948252 -0.038650
			-0.080374 -0.436382 -0.896165
			-0.282590  0.940544 -0.188468
			 0.658843 -0.702906 -0.268046
			 0.047327 -0.838930 -0.542178
			 0.359593 -0.739583 -0.568955
			 0.423716 -0.900825  0.094760
			 0.225451 -0.973910 -0.025898
			-0.159035 -0.939090 -0.304659
			-0.601068 -0.786661  0.141003
			-0.696089 -0.241529  0.676109
			-0.407766 -0.135569  0.902966
			-0.180020 -0.055284  0.982108
			-0.211033 -0.121666  0.969877
			-0.311626  0.789006  0.529490
			 0.211449  0.946067 -0.245453
			 0.191307  0.391409 -0.900111
			 0.048304  0.997609 -0.049435
			-0.132154 -0.473286 -0.870940
			 0.163650  0.985837  0.036664
			 0.001784 -0.982214 -0.187758
			-0.137776 -0.829550 -0.541170
			 0.304907 -0.899518 -0.312889
			 0.368837 -0.921789 -0.119430
			-0.104778 -0.424352  0.899415
			-0.233225  0.240571  0.942195
			 0.286283  0.274182  0.918077
			 0.417115 -0.105723  0.902684
			 0.401697  0.095645  0.910764
			 0.342066  0.733189  0.587729
			 0.393307  0.753011 -0.527526
			 0.097610  0.994482  0.038450
			 0.196417  0.972402 -0.125915
			 0.480860  0.330269 -0.812217
			 0.318450  0.925984  0.202837
			 0.626204 -0.386760 -0.676968
			 0.573838  0.599684  0.557754
			 0.084444 -0.972923 -0.215154
			 0.291851 -0.947929  0.127493
			 0.535090 -0.814075 -0.225745
			 0.523999 -0.764668 -0.375111
			 0.501783 -0.861763 -0.074687
			 0.748761 -0.300091  0.591018
			 0.357445  0.249692  0.899937
			 0.245888  0.241838  0.938645
			 0.211190  0.371209  0.904214
			 0.572121  0.127108  0.810260
			 0.812894  0.506810 -0.286963
			 0.402877  0.881382  0.246690
			 0.487602  0.623636  0.611001
			 0.925798 -0.378005 -0.003236
			 0.640994 -0.761464 -0.096435
			 0.442632 -0.863290  0.242502
			 0.603353 -0.796869  0.031072
			 0.648012 -0.601620  0.467047
			 0.787083 -0.165269  0.594295
			 0.968761 -0.230755  0.090859
			 0.870508  0.354392  0.341500
		</DataArray>
	</PointData>
	<Points>
		<DataArray type="Float32" NumberOfComponents="3" format="ascii">
			-0.007125 -0.434406 -0.005020
			-0.005991 -0.436738 -0.007677
			-0.008118 -0.438919 -0.001672
			-0.008374 -0.433939  0.001140
			-0.004602 -0.423164 -0.009034
			-0.001210 -0.430555 -0.016332
			-0.004813 -0.441736 -0.006469
			 0.000006 -0.433057 -0.019176
			-0.005298 -0.443714 -0.000750
			-0.006685 -0.441591  0.003632
			-0.008213 -0.437420  0.005621
			-0.006018 -0.425561  0.002472
			 0.002335 -0.420478 -0.015098
			 0.003755 -0.423310 -0.018558
			 0.000908 -0.421439 -0.005741
			 0.005173 -0.428364 -0.018580
			 0.002149 -0.440700 -0.019210
			 0.001820 -0.444461 -0.011591
			-0.001101 -0.442416  0.001350
			-0.003918 -0.436353  0.007535
			-0.005792 -0.431307  0.010083
			-0.000483 -0.423891  0.005703
			 0.008301 -0.417239 -0.016663
			 0.007270 -0.418863 -0.008480
			 0.009145 -0.419529 -0.017781
			 0.005621 -0.419238  0.001186
			 0.007924 -0.436540 -0.021141
			 0.010968 -0.426029 -0.017810
			 0.012753 -0.431036 -0.019925
			 0.007012 -0.438780 -0.012653
			 0.006043 -0.439143 -0.006743
			 0.003762 -0.436118  0.001153
			 0.001272 -0.433091  0.010219
			 0.000230 -0.431449  0.013429
			-0.000653 -0.427865  0.012766
			 0.004317 -0.422709  0.013734
			 0.002978 -0.417499  0.013080
			 0.003508 -0.416879  0.009203
			 0.013905 -0.412869 -0.017977
			 0.015489 -0.417481 -0.019597
			 0.012680 -0.413833 -0.009729
			 0.011667 -0.415845 -0.001054
			 0.017268 -0.424582 -0.018459
			 0.009584 -0.414195  0.007881
			 0.013546 -0.434976 -0.018219
			 0.016766 -0.426566 -0.012617
			 0.017493 -0.432422 -0.007593
			 0.011380 -0.434267 -0.007377
			 0.009692 -0.432629 -0.000596
			 0.009414 -0.436374  0.006716
			 0.008618 -0.437599  0.012991
			 0.007840 -0.435746  0.014416
			 0.006746 -0.430330  0.012100
			 0.012152 -0.429354  0.017112
			 0.009917 -0.422263  0.018499
			 0.007699 -0.413924  0.017860
			 0.020579 -0.414380 -0.016115
			 0.022093 -0.417707 -0.019331
			 0.017243 -0.414555  0.002543
			 0.024168 -0.424586 -0.020162
			 0.014734 -0.413299  0.014434
			 0.017221 -0.434205 -0.003352
			 0.024615 -0.430919 -0.012861
			 0.016029 -0.436204  0.006307
			 0.016240 -0.442806  0.015331
			 0.014717 -0.440331  0.019898
			 0.013318 -0.435663  0.020410
			 0.018739 -0.427494  0.014249
			 0.017696 -0.424611  0.015554
			 0.015740 -0.418676  0.017182
			 0.014425 -0.413393  0.016281
			 0.027324 -0.416393 -0.013885
			 0.025160 -0.415685 -0.003044
			 0.026708 -0.415471 -0.011911
			 0.030305 -0.424105 -0.018414
			 0.023184 -0.415964  0.008285
			 0.031394 -0.428151 -0.018186
			 0.022793 -0.416804  0.011730
			 0.024955 -0.434083 -0.009858
			 0.022726 -0.431630 -0.001350
			 0.031355 -0.430318 -0.014624
			 0.030909 -0.430717 -0.011547
			 0.020601 -0.431628  0.010352
			 0.019873 -0.432963  0.016441
			 0.019242 -0.430281  0.015775
			 0.025654 -0.427951  0.013159
			 0.025312 -0.425899  0.011876
			 0.023822 -0.420474  0.011715
			 0.033536 -0.416935 -0.010972
			 0.030860 -0.415796  0.002026
			 0.031202 -0.419089  0.005214
			 0.034477 -0.425142 -0.003496
			 0.030989 -0.432915 -0.008600
			 0.029834 -0.432028 -0.003608
			 0.026768 -0.429700  0.009704
			 0.026574 -0.430478  0.011979
			 0.031150 -0.422765  0.011172
			 0.035292 -0.422907 -0.002356
			 0.033524 -0.421946  0.005899
		</DataArray>
	</Points>
			<Polys>
				<DataArray type="Int32" Name="connectivity" format="ascii">
					0 1 2 
					3 0 2 
					4 5 0 
					5 1 0 
					4 0 3 
					1 6 2 
					5 7 1 
					7 6 1 
					6 8 2 
					8 9 2 
					9 10 2 
					10 3 2 
					11 3 10 
					11 4 3 
					12 13 4 
					13 5 4 
					14 4 11 
					14 12 4 
					13 15 5 
					15 7 5 
					7 16 6 
					16 17 6 
					17 8 6 
					15 16 7 
					17 18 8 
					18 9 8 
					18 19 9 
					19 10 9 
					19 20 10 
					20 11 10 
					21 11 20 
					21 14 11 
					22 13 12 
					23 12 14 
					23 22 12 
					22 24 13 
					24 15 13 
					25 14 21 
					25 23 14 
					15 26 16 
					24 27 15 
					27 28 15 
					28 26 15 
					26 17 16 
					26 29 17 
					29 30 17 
					30 18 17 
					30 31 18 
					31 32 18 
					32 19 18 
					32 33 19 
					33 20 19 
					33 34 20 
					34 21 20 
					35 21 34 
					35 36 21 
					36 37 21 
					37 25 21 
					38 39 22 
					39 24 22 
					40 22 23 
					40 38 22 
					41 23 25 
					41 40 23 
					39 42 24 
					42 27 24 
					43 25 37 
					43 41 25 
					28 44 26 
					44 29 26 
					42 45 27 
					45 46 27 
					46 28 27 
					46 44 28 
					44 47 29 
					47 30 29 
					47 48 30 
					48 31 30 
					48 49 31 
					49 32 31 
					49 50 32 
					50 51 32 
					51 52 32 
					52 33 32 
					52 35 33 
					35 34 33 
					53 35 52 
					53 54 35 
					54 36 35 
					54 55 36 
					55 37 36 
					55 43 37 
					56 39 38 
					56 38 40 
					56 57 39 
					57 42 39 
					56 40 41 
					58 41 43 
					58 56 41 
					57 59 42 
					59 45 42 
					60 43 55 
					60 58 43 
					46 47 44 
					59 46 45 
					46 61 47 
					59 62 46 
					62 61 46 
					61 48 47 
					61 63 48 
					63 49 48 
					63 64 49 
					64 50 49 
					64 65 50 
					65 51 50 
					65 66 51 
					66 52 51 
					66 53 52 
					67 53 66 
					67 68 53 
					68 54 53 
					68 69 54 
					69 55 54 
					69 70 55 
					70 60 55 
					71 57 56 
					72 56 58 
					72 73 56 
					73 71 56 
					71 74 57 
					74 59 57 
					75 58 60 
					75 72 58 
					74 76 59 
					76 62 59 
					77 60 70 
					77 75 60 
					62 78 61 
					78 79 61 
					79 63 61 
					76 80 62 
					80 81 62 
					81 78 62 
					79 82 63 
					82 64 63 
					82 83 64 
					83 65 64 
					83 84 65 
					84 66 65 
					84 67 66 
					85 67 84 
					85 86 67 
					86 68 67 
					86 87 68 
					87 69 68 
					87 77 69 
					77 70 69 
					88 74 71 
					88 71 73 
					89 72 75 
					89 73 72 
					89 88 73 
					88 76 74 
					90 75 77 
					90 89 75 
					88 91 76 
					91 80 76 
					90 77 87 
					81 92 78 
					92 93 78 
					93 79 78 
					93 82 79 
					91 81 80 
					91 92 81 
					93 94 82 
					94 95 82 
					95 83 82 
					95 84 83 
					95 85 84 
					96 85 95 
					96 86 85 
					96 90 86 
					90 87 86 
					97 91 88 
					98 88 89 
					98 97 88 
					98 89 90 
					98 90 96 
					91 93 92 
					91 96 93 
					97 96 91 
					96 94 93 
					96 95 94 
					97 98 96 
				</DataArray>
				<DataArray type="Int32" Name="offsets" format="ascii">
					3 6 9 12 15 18 21 24 27 30 33 36 39 42 45 48 51 54 57 60 63 66 69 72 75 78 81 84 87 90 93 96 99 102 105 108 111 114 117 120 123 126 129 132 135 138 141 144 147 150 153 156 159 162 165 168 171 174 177 180 183 186 189 192 195 198 201 204 207 210 213 216 219 222 225 228 231 234 237 240 243 246 249 252 255 258 261 264 267 270 273 276 279 282 285 288 291 294 297 300 303 306 309 312 315 318 321 324 327 330 333 336 339 342 345 348 351 354 357 360 363 366 369 372 375 378 381 384 387 390 393 396 399 402 405 408 411 414 417 420 423 426 429 432 435 438 441 444 447 450 453 456 459 462 465 468 471 474 477 480 483 486 489 492 495 498 501 504 507 510 513 516 519 522 525 528 531 534 537 540 543 546 549 552 555 558 561 564 567 570 573 576 579 582 
				</DataArray>
			</Polys>
		</Piece>
	</PolyData>
</VTKFile>
